Program Version,EnergyPlus, Version 25.1.0-1c11a3d85f, YMD=2026.04.14 13:10
1,5,Environment Title[],Latitude[deg],Longitude[deg],Time Zone[],Elevation[m]
2,8,Day of Simulation[],Month[],Day of Month[],DST Indicator[1=yes 0=no],Hour[],StartMinute[],EndMinute[],DayType
3,5,Cumulative Day of Simulation[],Month[],Day of Month[],DST Indicator[1=yes 0=no],DayType  ! When Daily Report Variables Requested
4,2,Cumulative Days of Simulation[],Month[]  ! When Monthly Report Variables Requested
5,1,Cumulative Days of Simulation[] ! When Run Period Report Variables Requested
6,1,Calendar Year of Simulation[] ! When Annual Report Variables Requested
7,1,Environment,Site Outdoor Air Drybulb Temperature [C] !TimeStep
14,1,GREENHOUSE,Zone Mean Air Temperature [C] !TimeStep
End of Data Dictionary
1,RUN1,  45.73,   5.08,   1.00, 240.00
2,1,12, 1, 0, 1, 0.00, 1.00,Sunday
7,-0.008333333333333333
14,-0.7334103680042955
2,1,12, 1, 0, 1, 1.00, 2.00,Sunday
7,-0.016666666666666666
14,-0.7341615318727892
2,1,12, 1, 0, 1, 2.00, 3.00,Sunday
7,-0.025
14,-0.7354359252518555
2,1,12, 1, 0, 1, 3.00, 4.00,Sunday
7,-0.03333333333333333
14,-0.7372606035975143
2,1,12, 1, 0, 1, 4.00, 5.00,Sunday
7,-0.041666666666666664
14,-0.7396168158869987
2,1,12, 1, 0, 1, 5.00, 6.00,Sunday
7,-0.05
14,-0.7424502855325156
2,1,12, 1, 0, 1, 6.00, 7.00,Sunday
7,-0.058333333333333334
14,-0.74570068464849
2,1,12, 1, 0, 1, 7.00, 8.00,Sunday
7,-0.06666666666666667
14,-0.7493156677007039
2,1,12, 1, 0, 1, 8.00, 9.00,Sunday
7,-0.075
14,-0.7532542047570717
2,1,12, 1, 0, 1, 9.00,10.00,Sunday
7,-0.08333333333333333
14,-0.7574834571352471
2,1,12, 1, 0, 1,10.00,11.00,Sunday
7,-0.09166666666666666
14,-0.761975531051949
2,1,12, 1, 0, 1,11.00,12.00,Sunday
7,-0.1
14,-0.7667056603877281
2,1,12, 1, 0, 1,12.00,13.00,Sunday
7,-0.10833333333333334
14,-0.771651463560854
2,1,12, 1, 0, 1,13.00,14.00,Sunday
7,-0.11666666666666667
14,-0.7767926682713225
2,1,12, 1, 0, 1,14.00,15.00,Sunday
7,-0.125
14,-0.782104683160886
2,1,12, 1, 0, 1,15.00,16.00,Sunday
7,-0.13333333333333333
14,-0.787567366260856
2,1,12, 1, 0, 1,16.00,17.00,Sunday
7,-0.14166666666666666
14,-0.7931660113923099
2,1,12, 1, 0, 1,17.00,18.00,Sunday
7,-0.15
14,-0.7988890619188271
2,1,12, 1, 0, 1,18.00,19.00,Sunday
7,-0.15833333333333333
14,-0.8047264376126665
2,1,12, 1, 0, 1,19.00,20.00,Sunday
7,-0.16666666666666666
14,-0.8106688583641758
2,1,12, 1, 0, 1,20.00,21.00,Sunday
7,-0.175
14,-0.816707693942565
2,1,12, 1, 0, 1,21.00,22.00,Sunday
7,-0.18333333333333332
14,-0.8228349654904021
2,1,12, 1, 0, 1,22.00,23.00,Sunday
7,-0.19166666666666668
14,-0.8290433450669907
2,1,12, 1, 0, 1,23.00,24.00,Sunday
7,-0.2
14,-0.8353261257893969
2,1,12, 1, 0, 1,24.00,25.00,Sunday
7,-0.20833333333333334
14,-0.8416771749968157
2,1,12, 1, 0, 1,25.00,26.00,Sunday
7,-0.21666666666666667
14,-0.8480908841645073
2,1,12, 1, 0, 1,26.00,27.00,Sunday
7,-0.225
14,-0.8545621221265937
2,1,12, 1, 0, 1,27.00,28.00,Sunday
7,-0.23333333333333334
14,-0.8610861930904706
2,1,12, 1, 0, 1,28.00,29.00,Sunday
7,-0.24166666666666667
14,-0.867658798963747
2,1,12, 1, 0, 1,29.00,30.00,Sunday
7,-0.25
14,-0.8742760052279315
2,1,12, 1, 0, 1,30.00,31.00,Sunday
7,-0.25833333333333336
14,-0.8809342098060003
2,1,12, 1, 0, 1,31.00,32.00,Sunday
7,-0.26666666666666666
14,-0.8876301145823122
2,1,12, 1, 0, 1,32.00,33.00,Sunday
7,-0.275
14,-0.8943606993423562
2,1,12, 1, 0, 1,33.00,34.00,Sunday
7,-0.2833333333333333
14,-0.9011231979396381
2,1,12, 1, 0, 1,34.00,35.00,Sunday
7,-0.2916666666666667
14,-0.9079150765108469
2,1,12, 1, 0, 1,35.00,36.00,Sunday
7,-0.3
14,-0.9147340135689337
2,1,12, 1, 0, 1,36.00,37.00,Sunday
7,-0.30833333333333335
14,-0.9215778818146798
2,1,12, 1, 0, 1,37.00,38.00,Sunday
7,-0.31666666666666665
14,-0.928444731519201
2,1,12, 1, 0, 1,38.00,39.00,Sunday
7,-0.325
14,-0.9353327753420688
2,1,12, 1, 0, 1,39.00,40.00,Sunday
7,-0.3333333333333333
14,-0.9422403744615037
2,1,12, 1, 0, 1,40.00,41.00,Sunday
7,-0.3416666666666667
14,-0.9491660259032472
2,1,12, 1, 0, 1,41.00,42.00,Sunday
7,-0.35
14,-0.9561083509646586
2,1,12, 1, 0, 1,42.00,43.00,Sunday
7,-0.35833333333333334
14,-0.9630660846395028
2,1,12, 1, 0, 1,43.00,44.00,Sunday
7,-0.36666666666666664
14,-0.9700380659566066
2,1,12, 1, 0, 1,44.00,45.00,Sunday
7,-0.375
14,-0.9770234737633725
2,1,12, 1, 0, 1,45.00,46.00,Sunday
7,-0.38333333333333336
14,-0.9840213815468764
2,1,12, 1, 0, 1,46.00,47.00,Sunday
7,-0.39166666666666666
14,-0.99103079190028
2,1,12, 1, 0, 1,47.00,48.00,Sunday
7,-0.4
14,-0.9980507022339904
2,1,12, 1, 0, 1,48.00,49.00,Sunday
7,-0.4083333333333333
14,-1.0050802486415016
2,1,12, 1, 0, 1,49.00,50.00,Sunday
7,-0.4166666666666667
14,-1.012118701289491
2,1,12, 1, 0, 1,50.00,51.00,Sunday
7,-0.425
14,-1.0191654233659215
2,1,12, 1, 0, 1,51.00,52.00,Sunday
7,-0.43333333333333335
14,-1.0262198397406113
2,1,12, 1, 0, 1,52.00,53.00,Sunday
7,-0.44166666666666665
14,-1.0332814215909532
2,1,12, 1, 0, 1,53.00,54.00,Sunday
7,-0.45
14,-1.0403496803146675
2,1,12, 1, 0, 1,54.00,55.00,Sunday
7,-0.4583333333333333
14,-1.0474241647143723
2,1,12, 1, 0, 1,55.00,56.00,Sunday
7,-0.4666666666666667
14,-1.0545044586815273
2,1,12, 1, 0, 1,56.00,57.00,Sunday
7,-0.475
14,-1.0615901787031312
2,1,12, 1, 0, 1,57.00,58.00,Sunday
7,-0.48333333333333334
14,-1.0686809712801726
2,1,12, 1, 0, 1,58.00,59.00,Sunday
7,-0.49166666666666664
14,-1.0757765104418793
2,1,12, 1, 0, 1,59.00,60.00,Sunday
7,-0.5
14,-1.0828764954507684
2,1,12, 1, 0, 2, 0.00, 1.00,Sunday
7,-0.505
14,-1.0898987207043838
2,1,12, 1, 0, 2, 1.00, 2.00,Sunday
7,-0.51
14,-1.0966927324039566
2,1,12, 1, 0, 2, 2.00, 3.00,Sunday
7,-0.515
14,-1.103180439968527
2,1,12, 1, 0, 2, 3.00, 4.00,Sunday
7,-0.52
14,-1.1093527728796695
2,1,12, 1, 0, 2, 4.00, 5.00,Sunday
7,-0.525
14,-1.1152335773929234
2,1,12, 1, 0, 2, 5.00, 6.00,Sunday
7,-0.53
14,-1.1208539035432736
2,1,12, 1, 0, 2, 6.00, 7.00,Sunday
7,-0.535
14,-1.1262417939874843
2,1,12, 1, 0, 2, 7.00, 8.00,Sunday
7,-0.54
14,-1.1314206711244035
2,1,12, 1, 0, 2, 8.00, 9.00,Sunday
7,-0.5449999999999999
14,-1.1364104207617736
2,1,12, 1, 0, 2, 9.00,10.00,Sunday
7,-0.55
14,-1.1412285485773481
2,1,12, 1, 0, 2,10.00,11.00,Sunday
7,-0.5549999999999999
14,-1.1458908308216222
2,1,12, 1, 0, 2,11.00,12.00,Sunday
7,-0.56
14,-1.1504116006238065
2,1,12, 1, 0, 2,12.00,13.00,Sunday
7,-0.565
14,-1.1548038829755713
2,1,12, 1, 0, 2,13.00,14.00,Sunday
7,-0.57
14,-1.1590794941125033
2,1,12, 1, 0, 2,14.00,15.00,Sunday
7,-0.575
14,-1.1632491408926795
2,1,12, 1, 0, 2,15.00,16.00,Sunday
7,-0.5800000000000001
14,-1.1673225214420702
2,1,12, 1, 0, 2,16.00,17.00,Sunday
7,-0.585
14,-1.1713084213477587
2,1,12, 1, 0, 2,17.00,18.00,Sunday
7,-0.59
14,-1.175214801841464
2,1,12, 1, 0, 2,18.00,19.00,Sunday
7,-0.595
14,-1.1790488792188107
2,1,12, 1, 0, 2,19.00,20.00,Sunday
7,-0.6000000000000001
14,-1.1828171961343
2,1,12, 1, 0, 2,20.00,21.00,Sunday
7,-0.605
14,-1.186525685737161
2,1,12, 1, 0, 2,21.00,22.00,Sunday
7,-0.61
14,-1.1901797295106584
2,1,12, 1, 0, 2,22.00,23.00,Sunday
7,-0.615
14,-1.1937842095066142
2,1,12, 1, 0, 2,23.00,24.00,Sunday
7,-0.6200000000000001
14,-1.1973435555418
2,1,12, 1, 0, 2,24.00,25.00,Sunday
7,-0.625
14,-1.2008617878448646
2,1,12, 1, 0, 2,25.00,26.00,Sunday
7,-0.63
14,-1.2043425555897884
2,1,12, 1, 0, 2,26.00,27.00,Sunday
7,-0.635
14,-1.2077891717089388
2,1,12, 1, 0, 2,27.00,28.00,Sunday
7,-0.64
14,-1.2112046443394278
2,1,12, 1, 0, 2,28.00,29.00,Sunday
7,-0.645
14,-1.2146000455649675
2,1,12, 1, 0, 2,29.00,30.00,Sunday
7,-0.65
14,-1.2179863065558805
2,1,12, 1, 0, 2,30.00,31.00,Sunday
7,-0.655
14,-1.2213699024686528
2,1,12, 1, 0, 2,31.00,32.00,Sunday
7,-0.66
14,-1.2247531147521213
2,1,12, 1, 0, 2,32.00,33.00,Sunday
7,-0.665
14,-1.2281361559372839
2,1,12, 1, 0, 2,33.00,34.00,Sunday
7,-0.67
14,-1.2315186610176918
2,1,12, 1, 0, 2,34.00,35.00,Sunday
7,-0.675
14,-1.2349002938757172
2,1,12, 1, 0, 2,35.00,36.00,Sunday
7,-0.6799999999999999
14,-1.2382808573062305
2,1,12, 1, 0, 2,36.00,37.00,Sunday
7,-0.685
14,-1.241660239520182
2,1,12, 1, 0, 2,37.00,38.00,Sunday
7,-0.6900000000000001
14,-1.245038354547925
2,1,12, 1, 0, 2,38.00,39.00,Sunday
7,-0.6950000000000001
14,-1.2484152012007488
2,1,12, 1, 0, 2,39.00,40.00,Sunday
7,-0.7
14,-1.251790872583133
2,1,12, 1, 0, 2,40.00,41.00,Sunday
7,-0.7050000000000001
14,-1.2551654548877502
2,1,12, 1, 0, 2,41.00,42.00,Sunday
7,-0.71
14,-1.258539008545728
2,1,12, 1, 0, 2,42.00,43.00,Sunday
7,-0.7150000000000001
14,-1.261911575619878
2,1,12, 1, 0, 2,43.00,44.00,Sunday
7,-0.72
14,-1.2652831894028431
2,1,12, 1, 0, 2,44.00,45.00,Sunday
7,-0.7250000000000001
14,-1.2686538799145353
2,1,12, 1, 0, 2,45.00,46.00,Sunday
7,-0.73
14,-1.2720236759728918
2,1,12, 1, 0, 2,46.00,47.00,Sunday
7,-0.7350000000000001
14,-1.2753926056507094
2,1,12, 1, 0, 2,47.00,48.00,Sunday
7,-0.7400000000000001
14,-1.2787606962514313
2,1,12, 1, 0, 2,48.00,49.00,Sunday
7,-0.745
14,-1.2821279742281129
2,1,12, 1, 0, 2,49.00,50.00,Sunday
7,-0.75
14,-1.2854944651179006
2,1,12, 1, 0, 2,50.00,51.00,Sunday
7,-0.7550000000000001
14,-1.288860193462193
2,1,12, 1, 0, 2,51.00,52.00,Sunday
7,-0.76
14,-1.2922251826780387
2,1,12, 1, 0, 2,52.00,53.00,Sunday
7,-0.765
14,-1.2955894548553506
2,1,12, 1, 0, 2,53.00,54.00,Sunday
7,-0.77
14,-1.298953030448053
2,1,12, 1, 0, 2,54.00,55.00,Sunday
7,-0.7750000000000001
14,-1.302315927795499
2,1,12, 1, 0, 2,55.00,56.00,Sunday
7,-0.78
14,-1.3056781623254807
2,1,12, 1, 0, 2,56.00,57.00,Sunday
7,-0.785
14,-1.3090397450445745
2,1,12, 1, 0, 2,57.00,58.00,Sunday
7,-0.79
14,-1.3124006789497027
2,1,12, 1, 0, 2,58.00,59.00,Sunday
7,-0.7949999999999999
14,-1.3157609486891197
2,1,12, 1, 0, 2,59.00,60.00,Sunday
7,-0.8
14,-1.3191205738668632
2,1,12, 1, 0, 3, 0.00, 1.00,Sunday
7,-0.8033333333333333
14,-1.3224674456112455
2,1,12, 1, 0, 3, 1.00, 2.00,Sunday
7,-0.8066666666666668
14,-1.3257791910627672
2,1,12, 1, 0, 3, 2.00, 3.00,Sunday
7,-0.81
14,-1.3290412475193663
2,1,12, 1, 0, 3, 3.00, 4.00,Sunday
7,-0.8133333333333334
14,-1.3322502119310304
2,1,12, 1, 0, 3, 4.00, 5.00,Sunday
7,-0.8166666666666668
14,-1.3354090783003056
2,1,12, 1, 0, 3, 5.00, 6.00,Sunday
7,-0.8200000000000001
14,-1.3385228011870205
2,1,12, 1, 0, 3, 6.00, 7.00,Sunday
7,-0.8233333333333334
14,-1.3415961704259491
2,1,12, 1, 0, 3, 7.00, 8.00,Sunday
7,-0.8266666666666667
14,-1.3446332761527764
2,1,12, 1, 0, 3, 8.00, 9.00,Sunday
7,-0.8300000000000001
14,-1.3476375937582856
2,1,12, 1, 0, 3, 9.00,10.00,Sunday
7,-0.8333333333333334
14,-1.3506121659133103
2,1,12, 1, 0, 3,10.00,11.00,Sunday
7,-0.8366666666666667
14,-1.3535597233304442
2,1,12, 1, 0, 3,11.00,12.00,Sunday
7,-0.8400000000000001
14,-1.3564827431986748
2,1,12, 1, 0, 3,12.00,13.00,Sunday
7,-0.8433333333333334
14,-1.3593834767039297
2,1,12, 1, 0, 3,13.00,14.00,Sunday
7,-0.8466666666666667
14,-1.3622639671209016
2,1,12, 1, 0, 3,14.00,15.00,Sunday
7,-0.8500000000000001
14,-1.3651260667006053
2,1,12, 1, 0, 3,15.00,16.00,Sunday
7,-0.8533333333333335
14,-1.3679714536525436
2,1,12, 1, 0, 3,16.00,17.00,Sunday
7,-0.8566666666666667
14,-1.370801648531757
2,1,12, 1, 0, 3,17.00,18.00,Sunday
7,-0.8599999999999999
14,-1.3736180293938842
2,1,12, 1, 0, 3,18.00,19.00,Sunday
7,-0.8633333333333334
14,-1.3764218455099522
2,1,12, 1, 0, 3,19.00,20.00,Sunday
7,-0.8666666666666667
14,-1.3792142297014105
2,1,12, 1, 0, 3,20.00,21.00,Sunday
7,-0.87
14,-1.381996209442696
2,1,12, 1, 0, 3,21.00,22.00,Sunday
7,-0.8733333333333333
14,-1.3847687168762814
2,1,12, 1, 0, 3,22.00,23.00,Sunday
7,-0.8766666666666667
14,-1.387532597860004
2,1,12, 1, 0, 3,23.00,24.00,Sunday
7,-0.88
14,-1.3902886201451519
2,1,12, 1, 0, 3,24.00,25.00,Sunday
7,-0.8833333333333333
14,-1.3930374807699428
2,1,12, 1, 0, 3,25.00,26.00,Sunday
7,-0.8866666666666667
14,-1.3957798127434458
2,1,12, 1, 0, 3,26.00,27.00,Sunday
7,-0.8900000000000001
14,-1.3985161910881108
2,1,12, 1, 0, 3,27.00,28.00,Sunday
7,-0.8933333333333333
14,-1.4012471383029705
2,1,12, 1, 0, 3,28.00,29.00,Sunday
7,-0.8966666666666667
14,-1.403973129303318
2,1,12, 1, 0, 3,29.00,30.00,Sunday
7,-0.9
14,-1.4066945958876376
2,1,12, 1, 0, 3,30.00,31.00,Sunday
7,-0.9033333333333333
14,-1.409411930777458
2,1,12, 1, 0, 3,31.00,32.00,Sunday
7,-0.9066666666666667
14,-1.4121254912713421
2,1,12, 1, 0, 3,32.00,33.00,Sunday
7,-0.91
14,-1.414835602550356
2,1,12, 1, 0, 3,33.00,34.00,Sunday
7,-0.9133333333333333
14,-1.4175425606686087
2,1,12, 1, 0, 3,34.00,35.00,Sunday
7,-0.9166666666666667
14,-1.4202466352592495
2,1,12, 1, 0, 3,35.00,36.00,Sunday
7,-0.92
14,-1.4229480719832326
2,1,12, 1, 0, 3,36.00,37.00,Sunday
7,-0.9233333333333333
14,-1.4256470947456805
2,1,12, 1, 0, 3,37.00,38.00,Sunday
7,-0.9266666666666667
14,-1.4283439077022584
2,1,12, 1, 0, 3,38.00,39.00,Sunday
7,-0.9299999999999999
14,-1.4310386970757691
2,1,12, 1, 0, 3,39.00,40.00,Sunday
7,-0.9333333333333333
14,-1.4337316328009273
2,1,12, 1, 0, 3,40.00,41.00,Sunday
7,-0.9366666666666668
14,-1.4364228700141648
2,1,12, 1, 0, 3,41.00,42.00,Sunday
7,-0.94
14,-1.4391127427127384
2,1,12, 1, 0, 3,42.00,43.00,Sunday
7,-0.9433333333333334
14,-1.441801397225497
2,1,12, 1, 0, 3,43.00,44.00,Sunday
7,-0.9466666666666667
14,-1.4444888569055574
2,1,12, 1, 0, 3,44.00,45.00,Sunday
7,-0.95
14,-1.4471750706700854
2,1,12, 1, 0, 3,45.00,46.00,Sunday
7,-0.9533333333333334
14,-1.4498600544924933
2,1,12, 1, 0, 3,46.00,47.00,Sunday
7,-0.9566666666666667
14,-1.4525438871059178
2,1,12, 1, 0, 3,47.00,48.00,Sunday
7,-0.96
14,-1.4552266725632368
2,1,12, 1, 0, 3,48.00,49.00,Sunday
7,-0.9633333333333334
14,-1.457908514222224
2,1,12, 1, 0, 3,49.00,50.00,Sunday
7,-0.9666666666666667
14,-1.4605895050027549
2,1,12, 1, 0, 3,50.00,51.00,Sunday
7,-0.97
14,-1.4632697265402852
2,1,12, 1, 0, 3,51.00,52.00,Sunday
7,-0.9733333333333334
14,-1.4659492510444723
2,1,12, 1, 0, 3,52.00,53.00,Sunday
7,-0.9766666666666667
14,-1.4686281431382997
2,1,12, 1, 0, 3,53.00,54.00,Sunday
7,-0.98
14,-1.4713064610925772
2,1,12, 1, 0, 3,54.00,55.00,Sunday
7,-0.9833333333333333
14,-1.4739842576168567
2,1,12, 1, 0, 3,55.00,56.00,Sunday
7,-0.9866666666666667
14,-1.4766624298234319
2,1,12, 1, 0, 3,56.00,57.00,Sunday
7,-0.99
14,-1.479341879333011
2,1,12, 1, 0, 3,57.00,58.00,Sunday
7,-0.9933333333333333
14,-1.482023071535922
2,1,12, 1, 0, 3,58.00,59.00,Sunday
7,-0.9966666666666667
14,-1.4847060616225178
2,1,12, 1, 0, 3,59.00,60.00,Sunday
7,-1.0
14,-1.487390710561656
2,1,12, 1, 0, 4, 0.00, 1.00,Sunday
7,-1.0
14,-1.4900330171483853
2,1,12, 1, 0, 4, 1.00, 2.00,Sunday
7,-1.0
14,-1.492552112533125
2,1,12, 1, 0, 4, 2.00, 3.00,Sunday
7,-1.0
14,-1.4949021512125777
2,1,12, 1, 0, 4, 3.00, 4.00,Sunday
7,-1.0
14,-1.497075652318224
2,1,12, 1, 0, 4, 4.00, 5.00,Sunday
7,-1.0
14,-1.4990848359491693
2,1,12, 1, 0, 4, 5.00, 6.00,Sunday
7,-1.0
14,-1.5009469409270282
2,1,12, 1, 0, 4, 6.00, 7.00,Sunday
7,-1.0
14,-1.502677918914464
2,1,12, 1, 0, 4, 7.00, 8.00,Sunday
7,-1.0
14,-1.5042911845535583
2,1,12, 1, 0, 4, 8.00, 9.00,Sunday
7,-1.0
14,-1.5057981092016455
2,1,12, 1, 0, 4, 9.00,10.00,Sunday
7,-1.0
14,-1.5072086645952927
2,1,12, 1, 0, 4,10.00,11.00,Sunday
7,-1.0
14,-1.5085318091750983
2,1,12, 1, 0, 4,11.00,12.00,Sunday
7,-1.0
14,-1.5097756655256958
2,1,12, 1, 0, 4,12.00,13.00,Sunday
7,-1.0
14,-1.5109458328073833
2,1,12, 1, 0, 4,13.00,14.00,Sunday
7,-1.0
14,-1.5120489725427062
2,1,12, 1, 0, 4,14.00,15.00,Sunday
7,-1.0
14,-1.5130920616326204
2,1,12, 1, 0, 4,15.00,16.00,Sunday
7,-1.0
14,-1.5140814552446002
2,1,12, 1, 0, 4,16.00,17.00,Sunday
7,-1.0
14,-1.5150225225036387
2,1,12, 1, 0, 4,17.00,18.00,Sunday
7,-1.0
14,-1.5159198262869666
2,1,12, 1, 0, 4,18.00,19.00,Sunday
7,-1.0
14,-1.516777365239321
2,1,12, 1, 0, 4,19.00,20.00,Sunday
7,-1.0
14,-1.5175987296030249
2,1,12, 1, 0, 4,20.00,21.00,Sunday
7,-1.0
14,-1.5183871773054913
2,1,12, 1, 0, 4,21.00,22.00,Sunday
7,-1.0
14,-1.519145670530187
2,1,12, 1, 0, 4,22.00,23.00,Sunday
7,-1.0
14,-1.5198768998611514
2,1,12, 1, 0, 4,23.00,24.00,Sunday
7,-1.0
14,-1.5205833065446064
2,1,12, 1, 0, 4,24.00,25.00,Sunday
7,-1.0
14,-1.5212671046807187
2,1,12, 1, 0, 4,25.00,26.00,Sunday
7,-1.0
14,-1.5219303025693138
2,1,12, 1, 0, 4,26.00,27.00,Sunday
7,-1.0
14,-1.5225747224372224
2,1,12, 1, 0, 4,27.00,28.00,Sunday
7,-1.0
14,-1.5232020182900827
2,1,12, 1, 0, 4,28.00,29.00,Sunday
7,-1.0
14,-1.523813691966715
2,1,12, 1, 0, 4,29.00,30.00,Sunday
7,-1.0
14,-1.5244111075860711
2,1,12, 1, 0, 4,30.00,31.00,Sunday
7,-1.0
14,-1.5249955045749293
2,1,12, 1, 0, 4,31.00,32.00,Sunday
7,-1.0
14,-1.525568009433482
2,1,12, 1, 0, 4,32.00,33.00,Sunday
7,-1.0
14,-1.5261296463682943
2,1,12, 1, 0, 4,33.00,34.00,Sunday
7,-1.0
14,-1.5266813469037912
2,1,12, 1, 0, 4,34.00,35.00,Sunday
7,-1.0
14,-1.5272239585708287
2,1,12, 1, 0, 4,35.00,36.00,Sunday
7,-1.0
14,-1.5277582527617768
2,1,12, 1, 0, 4,36.00,37.00,Sunday
7,-1.0
14,-1.5282849318330805
2,1,12, 1, 0, 4,37.00,38.00,Sunday
7,-1.0
14,-1.5288046355282392
2,1,12, 1, 0, 4,38.00,39.00,Sunday
7,-1.0
14,-1.5293179467875415
2,1,12, 1, 0, 4,39.00,40.00,Sunday
7,-1.0
14,-1.5298253970040616
2,1,12, 1, 0, 4,40.00,41.00,Sunday
7,-1.0
14,-1.5303274707795884
2,1,12, 1, 0, 4,41.00,42.00,Sunday
7,-1.0
14,-1.5308246102289367
2,1,12, 1, 0, 4,42.00,43.00,Sunday
7,-1.0
14,-1.531317218876328
2,1,12, 1, 0, 4,43.00,44.00,Sunday
7,-1.0
14,-1.53180566518334
2,1,12, 1, 0, 4,44.00,45.00,Sunday
7,-1.0
14,-1.5322904883098827
2,1,12, 1, 0, 4,45.00,46.00,Sunday
7,-1.0
14,-1.5327720468763075
2,1,12, 1, 0, 4,46.00,47.00,Sunday
7,-1.0
14,-1.5332505291483238
2,1,12, 1, 0, 4,47.00,48.00,Sunday
7,-1.0
14,-1.5337260102850048
2,1,12, 1, 0, 4,48.00,49.00,Sunday
7,-1.0
14,-1.5341986186054943
2,1,12, 1, 0, 4,49.00,50.00,Sunday
7,-1.0
14,-1.534668544133511
2,1,12, 1, 0, 4,50.00,51.00,Sunday
7,-1.0
14,-1.535136001050414
2,1,12, 1, 0, 4,51.00,52.00,Sunday
7,-1.0
14,-1.5356011980871382
2,1,12, 1, 0, 4,52.00,53.00,Sunday
7,-1.0
14,-1.5360643263376879
2,1,12, 1, 0, 4,53.00,54.00,Sunday
7,-1.0
14,-1.5365255577413905
2,1,12, 1, 0, 4,54.00,55.00,Sunday
7,-1.0
14,-1.5369850472938367
2,1,12, 1, 0, 4,55.00,56.00,Sunday
7,-1.0
14,-1.5374429355628259
2,1,12, 1, 0, 4,56.00,57.00,Sunday
7,-1.0
14,-1.5378993505889569
2,1,12, 1, 0, 4,57.00,58.00,Sunday
7,-1.0
14,-1.538354409246305
2,1,12, 1, 0, 4,58.00,59.00,Sunday
7,-1.0
14,-1.5388082183059246
2,1,12, 1, 0, 4,59.00,60.00,Sunday
7,-1.0
14,-1.5392608753561658
2,1,12, 1, 0, 5, 0.00, 1.00,Sunday
7,-1.0033333333333332
14,-1.539750772176744
2,1,12, 1, 0, 5, 1.00, 2.00,Sunday
7,-1.0066666666666666
14,-1.5403564862181394
2,1,12, 1, 0, 5, 2.00, 3.00,Sunday
7,-1.01
14,-1.5411256959563397
2,1,12, 1, 0, 5, 3.00, 4.00,Sunday
7,-1.0133333333333334
14,-1.5420689391229871
2,1,12, 1, 0, 5, 4.00, 5.00,Sunday
7,-1.0166666666666666
14,-1.5431761642044177
2,1,12, 1, 0, 5, 5.00, 6.00,Sunday
7,-1.02
14,-1.544431156501441
2,1,12, 1, 0, 5, 6.00, 7.00,Sunday
7,-1.0233333333333332
14,-1.5458182948947778
2,1,12, 1, 0, 5, 7.00, 8.00,Sunday
7,-1.0266666666666666
14,-1.547324222268079
2,1,12, 1, 0, 5, 8.00, 9.00,Sunday
7,-1.03
14,-1.54893756177704
2,1,12, 1, 0, 5, 9.00,10.00,Sunday
7,-1.0333333333333334
14,-1.5506483352421851
2,1,12, 1, 0, 5,10.00,11.00,Sunday
7,-1.0366666666666666
14,-1.5524475792738353
2,1,12, 1, 0, 5,11.00,12.00,Sunday
7,-1.04
14,-1.5543271594831218
2,1,12, 1, 0, 5,12.00,13.00,Sunday
7,-1.0433333333333334
14,-1.5562796823499434
2,1,12, 1, 0, 5,13.00,14.00,Sunday
7,-1.0466666666666666
14,-1.5582984365871433
2,1,12, 1, 0, 5,14.00,15.00,Sunday
7,-1.05
14,-1.5603860942752619
2,1,12, 1, 0, 5,15.00,16.00,Sunday
7,-1.0533333333333335
14,-1.5625372772693584
2,1,12, 1, 0, 5,16.00,17.00,Sunday
7,-1.0566666666666666
14,-1.5647425787096905
2,1,12, 1, 0, 5,17.00,18.00,Sunday
7,-1.06
14,-1.5669933041755408
2,1,12, 1, 0, 5,18.00,19.00,Sunday
7,-1.0633333333333332
14,-1.569283379471708
2,1,12, 1, 0, 5,19.00,20.00,Sunday
7,-1.0666666666666667
14,-1.5716086527170514
2,1,12, 1, 0, 5,20.00,21.00,Sunday
7,-1.07
14,-1.5739659368797316
2,1,12, 1, 0, 5,21.00,22.00,Sunday
7,-1.0733333333333333
14,-1.5763524618405844
2,1,12, 1, 0, 5,22.00,23.00,Sunday
7,-1.0766666666666667
14,-1.578763486075704
2,1,12, 1, 0, 5,23.00,24.00,Sunday
7,-1.08
14,-1.581194434220486
2,1,12, 1, 0, 5,24.00,25.00,Sunday
7,-1.0833333333333333
14,-1.5836420409801322
2,1,12, 1, 0, 5,25.00,26.00,Sunday
7,-1.0866666666666667
14,-1.5861042834095236
2,1,12, 1, 0, 5,26.00,27.00,Sunday
7,-1.09
14,-1.5885798134611229
2,1,12, 1, 0, 5,27.00,28.00,Sunday
7,-1.0933333333333333
14,-1.5910675537178538
2,1,12, 1, 0, 5,28.00,29.00,Sunday
7,-1.0966666666666667
14,-1.593566525955499
2,1,12, 1, 0, 5,29.00,30.00,Sunday
7,-1.1
14,-1.5960758112104134
2,1,12, 1, 0, 5,30.00,31.00,Sunday
7,-1.1033333333333333
14,-1.5985945529302734
2,1,12, 1, 0, 5,31.00,32.00,Sunday
7,-1.1066666666666667
14,-1.6011219631783709
2,1,12, 1, 0, 5,32.00,33.00,Sunday
7,-1.1099999999999999
14,-1.6036573226003168
2,1,12, 1, 0, 5,33.00,34.00,Sunday
7,-1.1133333333333333
14,-1.6061999759279597
2,1,12, 1, 0, 5,34.00,35.00,Sunday
7,-1.1166666666666667
14,-1.6087493260523547
2,1,12, 1, 0, 5,35.00,36.00,Sunday
7,-1.12
14,-1.611304828312926
2,1,12, 1, 0, 5,36.00,37.00,Sunday
7,-1.1233333333333333
14,-1.613865985469061
2,1,12, 1, 0, 5,37.00,38.00,Sunday
7,-1.1266666666666665
14,-1.6164323433097891
2,1,12, 1, 0, 5,38.00,39.00,Sunday
7,-1.13
14,-1.6190034867560694
2,1,12, 1, 0, 5,39.00,40.00,Sunday
7,-1.1333333333333333
14,-1.6215792511335982
2,1,12, 1, 0, 5,40.00,41.00,Sunday
7,-1.1366666666666667
14,-1.624159305639405
2,1,12, 1, 0, 5,41.00,42.00,Sunday
7,-1.1400000000000001
14,-1.6267432251248615
2,1,12, 1, 0, 5,42.00,43.00,Sunday
7,-1.1433333333333333
14,-1.6293305495430896
2,1,12, 1, 0, 5,43.00,44.00,Sunday
7,-1.1466666666666665
14,-1.6319209251588362
2,1,12, 1, 0, 5,44.00,45.00,Sunday
7,-1.15
14,-1.6345140951687642
2,1,12, 1, 0, 5,45.00,46.00,Sunday
7,-1.1533333333333333
14,-1.63710985740626
2,1,12, 1, 0, 5,46.00,47.00,Sunday
7,-1.1566666666666667
14,-1.6397080347881823
2,1,12, 1, 0, 5,47.00,48.00,Sunday
7,-1.16
14,-1.6423084630177092
2,1,12, 1, 0, 5,48.00,49.00,Sunday
7,-1.1633333333333333
14,-1.644910987690125
2,1,12, 1, 0, 5,49.00,50.00,Sunday
7,-1.1666666666666665
14,-1.6475154643420602
2,1,12, 1, 0, 5,50.00,51.00,Sunday
7,-1.17
14,-1.650121758626448
2,1,12, 1, 0, 5,51.00,52.00,Sunday
7,-1.1733333333333333
14,-1.6527297460118728
2,1,12, 1, 0, 5,52.00,53.00,Sunday
7,-1.1766666666666665
14,-1.655339311167992
2,1,12, 1, 0, 5,53.00,54.00,Sunday
7,-1.1800000000000002
14,-1.657950347264674
2,1,12, 1, 0, 5,54.00,55.00,Sunday
7,-1.1833333333333331
14,-1.6605627553029403
2,1,12, 1, 0, 5,55.00,56.00,Sunday
7,-1.1866666666666665
14,-1.6631764435090113
2,1,12, 1, 0, 5,56.00,57.00,Sunday
7,-1.19
14,-1.6657913267867637
2,1,12, 1, 0, 5,57.00,58.00,Sunday
7,-1.1933333333333334
14,-1.6684073262173593
2,1,12, 1, 0, 5,58.00,59.00,Sunday
7,-1.1966666666666668
14,-1.6710243685979815
2,1,12, 1, 0, 5,59.00,60.00,Sunday
7,-1.2
14,-1.6736423860152592
2,1,12, 1, 0, 6, 0.00, 1.00,Sunday
7,-1.2033333333333334
14,-1.6762612927067453
2,1,12, 1, 0, 6, 1.00, 2.00,Sunday
7,-1.2066666666666666
14,-1.6788810172174575
2,1,12, 1, 0, 6, 2.00, 3.00,Sunday
7,-1.21
14,-1.6815015031800205
2,1,12, 1, 0, 6, 3.00, 4.00,Sunday
7,-1.2133333333333332
14,-1.6841227032246673
2,1,12, 1, 0, 6, 4.00, 5.00,Sunday
7,-1.2166666666666666
14,-1.6867445746216096
2,1,12, 1, 0, 6, 5.00, 6.00,Sunday
7,-1.22
14,-1.6893670774718923
2,1,12, 1, 0, 6, 6.00, 7.00,Sunday
7,-1.2233333333333332
14,-1.6919901742661867
2,1,12, 1, 0, 6, 7.00, 8.00,Sunday
7,-1.2266666666666666
14,-1.694613829853713
2,1,12, 1, 0, 6, 8.00, 9.00,Sunday
7,-1.23
14,-1.697238011416449
2,1,12, 1, 0, 6, 9.00,10.00,Sunday
7,-1.2333333333333334
14,-1.699862688370687
2,1,12, 1, 0, 6,10.00,11.00,Sunday
7,-1.2366666666666666
14,-1.7024878322247738
2,1,12, 1, 0, 6,11.00,12.00,Sunday
7,-1.24
14,-1.7051134164280122
2,1,12, 1, 0, 6,12.00,13.00,Sunday
7,-1.2433333333333332
14,-1.707739416228229
2,1,12, 1, 0, 6,13.00,14.00,Sunday
7,-1.2466666666666666
14,-1.7103658085418776
2,1,12, 1, 0, 6,14.00,15.00,Sunday
7,-1.25
14,-1.7129925718354209
2,1,12, 1, 0, 6,15.00,16.00,Sunday
7,-1.2533333333333334
14,-1.7156196860163337
2,1,12, 1, 0, 6,16.00,17.00,Sunday
7,-1.2566666666666666
14,-1.7182471323323114
2,1,12, 1, 0, 6,17.00,18.00,Sunday
7,-1.26
14,-1.7208748932776219
2,1,12, 1, 0, 6,18.00,19.00,Sunday
7,-1.2633333333333332
14,-1.7235029525061905
2,1,12, 1, 0, 6,19.00,20.00,Sunday
7,-1.2666666666666666
14,-1.7261312947510326
2,1,12, 1, 0, 6,20.00,21.00,Sunday
7,-1.27
14,-1.728759905749407
2,1,12, 1, 0, 6,21.00,22.00,Sunday
7,-1.2733333333333332
14,-1.731388772173407
2,1,12, 1, 0, 6,22.00,23.00,Sunday
7,-1.2766666666666666
14,-1.7340178815655953
2,1,12, 1, 0, 6,23.00,24.00,Sunday
7,-1.2799999999999998
14,-1.7366472222791787
2,1,12, 1, 0, 6,24.00,25.00,Sunday
7,-1.2833333333333332
14,-1.7392767834225147
2,1,12, 1, 0, 6,25.00,26.00,Sunday
7,-1.2866666666666666
14,-1.7419065548076245
2,1,12, 1, 0, 6,26.00,27.00,Sunday
7,-1.29
14,-1.7445365269023112
2,1,12, 1, 0, 6,27.00,28.00,Sunday
7,-1.2933333333333334
14,-1.7471666907857375
2,1,12, 1, 0, 6,28.00,29.00,Sunday
7,-1.2966666666666664
14,-1.7497970381072194
2,1,12, 1, 0, 6,29.00,30.00,Sunday
7,-1.2999999999999998
14,-1.7524275610477853
2,1,12, 1, 0, 6,30.00,31.00,Sunday
7,-1.3033333333333332
14,-1.7550582522845144
2,1,12, 1, 0, 6,31.00,32.00,Sunday
7,-1.3066666666666666
14,-1.7576891049574226
2,1,12, 1, 0, 6,32.00,33.00,Sunday
7,-1.31
14,-1.7603201126386268
2,1,12, 1, 0, 6,33.00,34.00,Sunday
7,-1.3133333333333332
14,-1.7629512693037028
2,1,12, 1, 0, 6,34.00,35.00,Sunday
7,-1.3166666666666667
14,-1.7655825693050071
2,1,12, 1, 0, 6,35.00,36.00,Sunday
7,-1.3199999999999998
14,-1.7682140073468346
2,1,12, 1, 0, 6,36.00,37.00,Sunday
7,-1.3233333333333333
14,-1.7708455784623691
2,1,12, 1, 0, 6,37.00,38.00,Sunday
7,-1.3266666666666667
14,-1.7734772779920733
2,1,12, 1, 0, 6,38.00,39.00,Sunday
7,-1.3299999999999998
14,-1.776109101563723
2,1,12, 1, 0, 6,39.00,40.00,Sunday
7,-1.3333333333333333
14,-1.778741045073809
2,1,12, 1, 0, 6,40.00,41.00,Sunday
7,-1.3366666666666667
14,-1.7813731046700845
2,1,12, 1, 0, 6,41.00,42.00,Sunday
7,-1.3399999999999999
14,-1.7840052767353147
2,1,12, 1, 0, 6,42.00,43.00,Sunday
7,-1.3433333333333333
14,-1.7866375578722462
2,1,12, 1, 0, 6,43.00,44.00,Sunday
7,-1.3466666666666667
14,-1.7892699448894804
2,1,12, 1, 0, 6,44.00,45.00,Sunday
7,-1.3499999999999999
14,-1.7919024347883024
2,1,12, 1, 0, 6,45.00,46.00,Sunday
7,-1.353333333333333
14,-1.7945350247504404
2,1,12, 1, 0, 6,46.00,47.00,Sunday
7,-1.3566666666666667
14,-1.7971677121266556
2,1,12, 1, 0, 6,47.00,48.00,Sunday
7,-1.3599999999999999
14,-1.7998004944260608
2,1,12, 1, 0, 6,48.00,49.00,Sunday
7,-1.3633333333333333
14,-1.8024333693061116
2,1,12, 1, 0, 6,49.00,50.00,Sunday
7,-1.3666666666666667
14,-1.8050677322923443
2,1,12, 1, 0, 6,50.00,51.00,Sunday
7,-1.3699999999999999
14,-1.8077049916668473
2,1,12, 1, 0, 6,51.00,52.00,Sunday
7,-1.3733333333333333
14,-1.8103458428286832
2,1,12, 1, 0, 6,52.00,53.00,Sunday
7,-1.3766666666666667
14,-1.8129903110653682
2,1,12, 1, 0, 6,53.00,54.00,Sunday
7,-1.38
14,-1.8156381080926234
2,1,12, 1, 0, 6,54.00,55.00,Sunday
7,-1.3833333333333333
14,-1.8182888805490782
2,1,12, 1, 0, 6,55.00,56.00,Sunday
7,-1.3866666666666667
14,-1.8209423089173833
2,1,12, 1, 0, 6,56.00,57.00,Sunday
7,-1.39
14,-1.8235981231837834
2,1,12, 1, 0, 6,57.00,58.00,Sunday
7,-1.3933333333333333
14,-1.8262560921665791
2,1,12, 1, 0, 6,58.00,59.00,Sunday
7,-1.3966666666666665
14,-1.8289160119833148
2,1,12, 1, 0, 6,59.00,60.00,Sunday
7,-1.4
14,-1.8315779347334185
2,1,12, 1, 0, 7, 0.00, 1.00,Sunday
7,-1.3983333333333332
14,-1.8341653147715624
2,1,12, 1, 0, 7, 1.00, 2.00,Sunday
7,-1.3966666666666665
14,-1.8365888880675179
2,1,12, 1, 0, 7, 2.00, 3.00,Sunday
7,-1.3949999999999998
14,-1.8388663336985858
2,1,12, 1, 0, 7, 3.00, 4.00,Sunday
7,-1.3933333333333333
14,-1.8410319460129427
2,1,12, 1, 0, 7, 4.00, 5.00,Sunday
7,-1.3916666666666666
14,-1.8431108315386697
2,1,12, 1, 0, 7, 5.00, 6.00,Sunday
7,-1.3900000000000001
14,-1.8451173920249644
2,1,12, 1, 0, 7, 6.00, 7.00,Sunday
7,-1.3883333333333332
14,-1.8470602168215993
2,1,12, 1, 0, 7, 7.00, 8.00,Sunday
7,-1.3866666666666667
14,-1.848945757417721
2,1,12, 1, 0, 7, 8.00, 9.00,Sunday
7,-1.385
14,-1.850779855746987
2,1,12, 1, 0, 7, 9.00,10.00,Sunday
7,-1.3833333333333333
14,-1.8525680615651205
2,1,12, 1, 0, 7,10.00,11.00,Sunday
7,-1.3816666666666666
14,-1.8543155669446294
2,1,12, 1, 0, 7,11.00,12.00,Sunday
7,-1.38
14,-1.856027126065444
2,1,12, 1, 0, 7,12.00,13.00,Sunday
7,-1.3783333333333334
14,-1.8577070401072953
2,1,12, 1, 0, 7,13.00,14.00,Sunday
7,-1.3766666666666665
14,-1.8593591863728516
2,1,12, 1, 0, 7,14.00,15.00,Sunday
7,-1.3749999999999998
14,-1.8609870616325113
2,1,12, 1, 0, 7,15.00,16.00,Sunday
7,-1.3733333333333333
14,-1.8625938239724313
2,1,12, 1, 0, 7,16.00,17.00,Sunday
7,-1.3716666666666666
14,-1.8641823288750359
2,1,12, 1, 0, 7,17.00,18.00,Sunday
7,-1.3699999999999999
14,-1.8657551600381672
2,1,12, 1, 0, 7,18.00,19.00,Sunday
7,-1.3683333333333334
14,-1.8673146563088165
2,1,12, 1, 0, 7,19.00,20.00,Sunday
7,-1.3666666666666667
14,-1.8688629357068482
2,1,12, 1, 0, 7,20.00,21.00,Sunday
7,-1.3649999999999998
14,-1.870401917053345
2,1,12, 1, 0, 7,21.00,22.00,Sunday
7,-1.3633333333333333
14,-1.8719333394760325
2,1,12, 1, 0, 7,22.00,23.00,Sunday
7,-1.3616666666666668
14,-1.87345877998223
2,1,12, 1, 0, 7,23.00,24.00,Sunday
7,-1.3599999999999999
14,-1.8749796692724456
2,1,12, 1, 0, 7,24.00,25.00,Sunday
7,-1.3583333333333334
14,-1.8764973059625358
2,1,12, 1, 0, 7,25.00,26.00,Sunday
7,-1.3566666666666665
14,-1.8780128693727982
2,1,12, 1, 0, 7,26.00,27.00,Sunday
7,-1.355
14,-1.8795274310289485
2,1,12, 1, 0, 7,27.00,28.00,Sunday
7,-1.3533333333333333
14,-1.8810419650054462
2,1,12, 1, 0, 7,28.00,29.00,Sunday
7,-1.3516666666666666
14,-1.8825573572276992
2,1,12, 1, 0, 7,29.00,30.00,Sunday
7,-1.35
14,-1.8840746419956647
2,1,12, 1, 0, 7,30.00,31.00,Sunday
7,-1.3483333333333332
14,-1.8855945770396227
2,1,12, 1, 0, 7,31.00,32.00,Sunday
7,-1.3466666666666667
14,-1.8871177212044212
2,1,12, 1, 0, 7,32.00,33.00,Sunday
7,-1.345
14,-1.8886445089630555
2,1,12, 1, 0, 7,33.00,34.00,Sunday
7,-1.3433333333333333
14,-1.8901754050857502
2,1,12, 1, 0, 7,34.00,35.00,Sunday
7,-1.3416666666666668
14,-1.891710900284598
2,1,12, 1, 0, 7,35.00,36.00,Sunday