Program Version,EnergyPlus, Version 25.1.0-1c11a3d85f, YMD=2026.04.14 13:10
1,5,Environment Title[],Latitude[deg],Longitude[deg],Time Zone[],Elevation[m]
2,8,Day of Simulation[],Month[],Day of Month[],DST Indicator[1=yes 0=no],Hour[],StartMinute[],EndMinute[],DayType
3,5,Cumulative Day of Simulation[],Month[],Day of Month[],DST Indicator[1=yes 0=no],DayType  ! When Daily Report Variables Requested
4,2,Cumulative Days of Simulation[],Month[]  ! When Monthly Report Variables Requested
5,1,Cumulative Days of Simulation[] ! When Run Period Report Variables Requested
6,1,Calendar Year of Simulation[] ! When Annual Report Variables Requested
7,1,Environment,Site Outdoor Air Drybulb Temperature [C] !TimeStep
14,1,GREENHOUSE,Zone Mean Air Temperature [C] !TimeStep
End of Data Dictionary
1,RUN1,  45.64,   5.88,   1.00, 235.00
2,1,12, 1, 0, 1, 0.00, 1.00,Sunday
7,3.465
14,3.1520298317548825
2,1,12, 1, 0, 1, 1.00, 2.00,Sunday
7,3.43
14,3.141608120446696
2,1,12, 1, 0, 1, 2.00, 3.00,Sunday
7,3.3949999999999996
14,3.129764042353429
2,1,12, 1, 0, 1, 3.00, 4.00,Sunday
7,3.36
14,3.1166572882153534
2,1,12, 1, 0, 1, 4.00, 5.00,Sunday
7,3.3249999999999997
14,3.102389109226969
2,1,12, 1, 0, 1, 5.00, 6.00,Sunday
7,3.29
14,3.0869096150433233
2,1,12, 1, 0, 1, 6.00, 7.00,Sunday
7,3.255
14,3.0704047023942143
2,1,12, 1, 0, 1, 7.00, 8.00,Sunday
7,3.2199999999999998
14,3.0531968966147542
2,1,12, 1, 0, 1, 8.00, 9.00,Sunday
7,3.185
14,3.0354291312985717
2,1,12, 1, 0, 1, 9.00,10.00,Sunday
7,3.1500000000000004
14,3.017107415785776
2,1,12, 1, 0, 1,10.00,11.00,Sunday
7,3.115
14,2.9985180323491907
2,1,12, 1, 0, 1,11.00,12.00,Sunday
7,3.08
14,2.979602963828649
2,1,12, 1, 0, 1,12.00,13.00,Sunday
7,3.045
14,2.960382362949809
2,1,12, 1, 0, 1,13.00,14.00,Sunday
7,3.01
14,2.941009669578235
2,1,12, 1, 0, 1,14.00,15.00,Sunday
7,2.975
14,2.9214857568663852
2,1,12, 1, 0, 1,15.00,16.00,Sunday
7,2.9400000000000004
14,2.901713967789429
2,1,12, 1, 0, 1,16.00,17.00,Sunday
7,2.905
14,2.8819237089435306
2,1,12, 1, 0, 1,17.00,18.00,Sunday
7,2.8699999999999997
14,2.862002461526404
2,1,12, 1, 0, 1,18.00,19.00,Sunday
7,2.835
14,2.8419323197111983
2,1,12, 1, 0, 1,19.00,20.00,Sunday
7,2.8000000000000003
14,2.82171970589557
2,1,12, 1, 0, 1,20.00,21.00,Sunday
7,2.7649999999999997
14,2.8014350513149786
2,1,12, 1, 0, 1,21.00,22.00,Sunday
7,2.73
14,2.7812045247178494
2,1,12, 1, 0, 1,22.00,23.00,Sunday
7,2.695
14,2.760974046702355
2,1,12, 1, 0, 1,23.00,24.00,Sunday
7,2.66
14,2.7405941566419143
2,1,12, 1, 0, 1,24.00,25.00,Sunday
7,2.625
14,2.7201498049971073
2,1,12, 1, 0, 1,25.00,26.00,Sunday
7,2.59
14,2.699600944785896
2,1,12, 1, 0, 1,26.00,27.00,Sunday
7,2.555
14,2.6790475812382413
2,1,12, 1, 0, 1,27.00,28.00,Sunday
7,2.52
14,2.6584285139878556
2,1,12, 1, 0, 1,28.00,29.00,Sunday
7,2.485
14,2.637821791314227
2,1,12, 1, 0, 1,29.00,30.00,Sunday
7,2.45
14,2.617151366184676
2,1,12, 1, 0, 1,30.00,31.00,Sunday
7,2.415
14,2.5964908343576023
2,1,12, 1, 0, 1,31.00,32.00,Sunday
7,2.38
14,2.5757618079030102
2,1,12, 1, 0, 1,32.00,33.00,Sunday
7,2.3449999999999998
14,2.5550397760149957
2,1,12, 1, 0, 1,33.00,34.00,Sunday
7,2.3099999999999996
14,2.5342463253204532
2,1,12, 1, 0, 1,34.00,35.00,Sunday
7,2.275
14,2.513458652541545
2,1,12, 1, 0, 1,35.00,36.00,Sunday
7,2.24
14,2.492597769210175
2,1,12, 1, 0, 1,36.00,37.00,Sunday
7,2.205
14,2.4717424772447023
2,1,12, 1, 0, 1,37.00,38.00,Sunday
7,2.17
14,2.4507854895362398
2,1,12, 1, 0, 1,38.00,39.00,Sunday
7,2.135
14,2.4297831167304245
2,1,12, 1, 0, 1,39.00,40.00,Sunday
7,2.1
14,2.4086492091499174
2,1,12, 1, 0, 1,40.00,41.00,Sunday
7,2.065
14,2.387471743374882
2,1,12, 1, 0, 1,41.00,42.00,Sunday
7,2.0300000000000002
14,2.366179524547863
2,1,12, 1, 0, 1,42.00,43.00,Sunday
7,1.9949999999999999
14,2.344865142755967
2,1,12, 1, 0, 1,43.00,44.00,Sunday
7,1.9600000000000002
14,2.3234538356812178
2,1,12, 1, 0, 1,44.00,45.00,Sunday
7,1.9249999999999998
14,2.302034971303587
2,1,12, 1, 0, 1,45.00,46.00,Sunday
7,1.8899999999999997
14,2.264478650109493
2,1,12, 1, 0, 1,46.00,47.00,Sunday
7,1.855
14,2.16905875205646
2,1,12, 1, 0, 1,47.00,48.00,Sunday
7,1.8199999999999998
14,2.066813143118337
2,1,12, 1, 0, 1,48.00,49.00,Sunday
7,1.7850000000000001
14,1.9753602583610252
2,1,12, 1, 0, 1,49.00,50.00,Sunday
7,1.75
14,1.9027588031790617
2,1,12, 1, 0, 1,50.00,51.00,Sunday
7,1.715
14,1.8465009788340072
2,1,12, 1, 0, 1,51.00,52.00,Sunday
7,1.68
14,1.802777023764639
2,1,12, 1, 0, 1,52.00,53.00,Sunday
7,1.645
14,1.7683282389275232
2,1,12, 1, 0, 1,53.00,54.00,Sunday
7,1.6099999999999999
14,1.741098496595034
2,1,12, 1, 0, 1,54.00,55.00,Sunday
7,1.575
14,1.7198247092312497
2,1,12, 1, 0, 1,55.00,56.00,Sunday
7,1.54
14,1.7036456596830813
2,1,12, 1, 0, 1,56.00,57.00,Sunday
7,1.505
14,1.6918880772275848
2,1,12, 1, 0, 1,57.00,58.00,Sunday
7,1.47
14,1.6840595149531439
2,1,12, 1, 0, 1,58.00,59.00,Sunday
7,1.435
14,1.679712211102724
2,1,12, 1, 0, 1,59.00,60.00,Sunday
7,1.4
14,1.678325208101218
2,1,12, 1, 0, 2, 0.00, 1.00,Sunday
7,1.3983333333333332
14,1.678707832998774
2,1,12, 1, 0, 2, 1.00, 2.00,Sunday
7,1.3966666666666665
14,1.6793335485507577
2,1,12, 1, 0, 2, 2.00, 3.00,Sunday
7,1.3949999999999998
14,1.6797319406746773
2,1,12, 1, 0, 2, 3.00, 4.00,Sunday
7,1.3933333333333333
14,1.6798991193290165
2,1,12, 1, 0, 2, 4.00, 5.00,Sunday
7,1.3916666666666666
14,1.6799436318003909
2,1,12, 1, 0, 2, 5.00, 6.00,Sunday
7,1.3900000000000001
14,1.6799459188372792
2,1,12, 1, 0, 2, 6.00, 7.00,Sunday
7,1.3883333333333332
14,1.6799415830749822
2,1,12, 1, 0, 2, 7.00, 8.00,Sunday
7,1.3866666666666667
14,1.6799402170283768
2,1,12, 1, 0, 2, 8.00, 9.00,Sunday
7,1.385
14,1.679942467343958
2,1,12, 1, 0, 2, 9.00,10.00,Sunday
7,1.3833333333333333
14,1.6799480232499826
2,1,12, 1, 0, 2,10.00,11.00,Sunday
7,1.3816666666666666
14,1.679957581255191
2,1,12, 1, 0, 2,11.00,12.00,Sunday
7,1.38
14,1.6799725314420149
2,1,12, 1, 0, 2,12.00,13.00,Sunday
7,1.3783333333333334
14,1.679994343421015
2,1,12, 1, 0, 2,13.00,14.00,Sunday
7,1.3766666666666665
14,1.6800242317774363
2,1,12, 1, 0, 2,14.00,15.00,Sunday
7,1.3749999999999998
14,1.6800630797291185
2,1,12, 1, 0, 2,15.00,16.00,Sunday
7,1.3733333333333333
14,1.6801114802783046
2,1,12, 1, 0, 2,16.00,17.00,Sunday
7,1.3716666666666666
14,1.6801698007665977
2,1,12, 1, 0, 2,17.00,18.00,Sunday
7,1.3699999999999999
14,1.6802382355729661
2,1,12, 1, 0, 2,18.00,19.00,Sunday
7,1.3683333333333334
14,1.6803168429692878
2,1,12, 1, 0, 2,19.00,20.00,Sunday
7,1.3666666666666667
14,1.680405571337551
2,1,12, 1, 0, 2,20.00,21.00,Sunday
7,1.3649999999999998
14,1.6805042795757428
2,1,12, 1, 0, 2,21.00,22.00,Sunday
7,1.3633333333333333
14,1.680612754211099
2,1,12, 1, 0, 2,22.00,23.00,Sunday
7,1.3616666666666668
14,1.6807307241587823
2,1,12, 1, 0, 2,23.00,24.00,Sunday
7,1.3599999999999999
14,1.6808578734232227
2,1,12, 1, 0, 2,24.00,25.00,Sunday
7,1.3583333333333334
14,1.680993851905818
2,1,12, 1, 0, 2,25.00,26.00,Sunday
7,1.3566666666666665
14,1.681138284506556
2,1,12, 1, 0, 2,26.00,27.00,Sunday
7,1.355
14,1.6812907787345135
2,1,12, 1, 0, 2,27.00,28.00,Sunday
7,1.3533333333333333
14,1.6814509310395682
2,1,12, 1, 0, 2,28.00,29.00,Sunday
7,1.3516666666666666
14,1.6816191183802067
2,1,12, 1, 0, 2,29.00,30.00,Sunday
7,1.35
14,1.6817949576722337
2,1,12, 1, 0, 2,30.00,31.00,Sunday
7,1.3483333333333332
14,1.6819776522447296
2,1,12, 1, 0, 2,31.00,32.00,Sunday
7,1.3466666666666667
14,1.682166334813404
2,1,12, 1, 0, 2,32.00,33.00,Sunday
7,1.345
14,1.6823603637663607
2,1,12, 1, 0, 2,33.00,34.00,Sunday
7,1.3433333333333333
14,1.6825592985059135
2,1,12, 1, 0, 2,34.00,35.00,Sunday
7,1.3416666666666668
14,1.6827627996373806
2,1,12, 1, 0, 2,35.00,36.00,Sunday
7,1.3399999999999999
14,1.6829705592755926
2,1,12, 1, 0, 2,36.00,37.00,Sunday
7,1.3383333333333334
14,1.6831822733684925
2,1,12, 1, 0, 2,37.00,38.00,Sunday
7,1.3366666666666667
14,1.6833976378271245
2,1,12, 1, 0, 2,38.00,39.00,Sunday
7,1.335
14,1.683616352329077
2,1,12, 1, 0, 2,39.00,40.00,Sunday
7,1.3333333333333335
14,1.6838381242281453
2,1,12, 1, 0, 2,40.00,41.00,Sunday
7,1.3316666666666668
14,1.6840626707444015
2,1,12, 1, 0, 2,41.00,42.00,Sunday
7,1.33
14,1.6842897198198852
2,1,12, 1, 0, 2,42.00,43.00,Sunday
7,1.3283333333333334
14,1.6845190103320635
2,1,12, 1, 0, 2,43.00,44.00,Sunday
7,1.3266666666666667
14,1.6847502920855038
2,1,12, 1, 0, 2,44.00,45.00,Sunday
7,1.3250000000000002
14,1.6849833257385525
2,1,12, 1, 0, 2,45.00,46.00,Sunday
7,1.3233333333333333
14,1.6852178826930744
2,1,12, 1, 0, 2,46.00,47.00,Sunday
7,1.3216666666666668
14,1.6854537449403761
2,1,12, 1, 0, 2,47.00,48.00,Sunday
7,1.3199999999999998
14,1.6856907048587586
2,1,12, 1, 0, 2,48.00,49.00,Sunday
7,1.3183333333333334
14,1.6859285649665727
2,1,12, 1, 0, 2,49.00,50.00,Sunday
7,1.3166666666666667
14,1.6861671376395142
2,1,12, 1, 0, 2,50.00,51.00,Sunday
7,1.315
14,1.6864062448010166
2,1,12, 1, 0, 2,51.00,52.00,Sunday
7,1.3133333333333332
14,1.6866457175940215
2,1,12, 1, 0, 2,52.00,53.00,Sunday
7,1.3116666666666668
14,1.68688539604038
2,1,12, 1, 0, 2,53.00,54.00,Sunday
7,1.31
14,1.6871251286930447
2,1,12, 1, 0, 2,54.00,55.00,Sunday
7,1.3083333333333333
14,1.6873647722851586
2,1,12, 1, 0, 2,55.00,56.00,Sunday
7,1.3066666666666666
14,1.6876041913792892
2,1,12, 1, 0, 2,56.00,57.00,Sunday
7,1.305
14,1.6878432580195362
2,1,12, 1, 0, 2,57.00,58.00,Sunday
7,1.3033333333333335
14,1.6880818513888953
2,1,12, 1, 0, 2,58.00,59.00,Sunday
7,1.3016666666666667
14,1.688319857473424
2,1,12, 1, 0, 2,59.00,60.00,Sunday
7,1.3
14,1.68855716873459
2,1,12, 1, 0, 3, 0.00, 1.00,Sunday
7,1.2983333333333333
14,1.6888749299330088
2,1,12, 1, 0, 3, 1.00, 2.00,Sunday
7,1.2966666666666669
14,1.6894340043735165
2,1,12, 1, 0, 3, 2.00, 3.00,Sunday
7,1.295
14,1.690319156381061
2,1,12, 1, 0, 3, 3.00, 4.00,Sunday
7,1.2933333333333334
14,1.691532248222929
2,1,12, 1, 0, 3, 4.00, 5.00,Sunday
7,1.2916666666666667
14,1.6930269708404921
2,1,12, 1, 0, 3, 5.00, 6.00,Sunday
7,1.29
14,1.6947487651327695
2,1,12, 1, 0, 3, 6.00, 7.00,Sunday
7,1.2883333333333333
14,1.696652542565025
2,1,12, 1, 0, 3, 7.00, 8.00,Sunday
7,1.2866666666666666
14,1.698705638131146
2,1,12, 1, 0, 3, 8.00, 9.00,Sunday
7,1.285
14,1.700884112033228
2,1,12, 1, 0, 3, 9.00,10.00,Sunday
7,1.2833333333333334
14,1.7031690311843641
2,1,12, 1, 0, 3,10.00,11.00,Sunday
7,1.2816666666666667
14,1.7055443866665123
2,1,12, 1, 0, 3,11.00,12.00,Sunday
7,1.28
14,1.707996240952866
2,1,12, 1, 0, 3,12.00,13.00,Sunday
7,1.2783333333333333
14,1.7105124219961976
2,1,12, 1, 0, 3,13.00,14.00,Sunday
7,1.2766666666666666
14,1.713082359992009
2,1,12, 1, 0, 3,14.00,15.00,Sunday
7,1.2750000000000001
14,1.7156969251111256
2,1,12, 1, 0, 3,15.00,16.00,Sunday
7,1.2733333333333334
14,1.7183482510307695
2,1,12, 1, 0, 3,16.00,17.00,Sunday
7,1.2716666666666667
14,1.721029562059796
2,1,12, 1, 0, 3,17.00,18.00,Sunday
7,1.27
14,1.723735017771595
2,1,12, 1, 0, 3,18.00,19.00,Sunday
7,1.2683333333333333
14,1.7264595794052346
2,1,12, 1, 0, 3,19.00,20.00,Sunday
7,1.2666666666666668
14,1.7291988965518377
2,1,12, 1, 0, 3,20.00,21.00,Sunday
7,1.2650000000000001
14,1.7319492108948078
2,1,12, 1, 0, 3,21.00,22.00,Sunday
7,1.2633333333333332
14,1.734707273972028
2,1,12, 1, 0, 3,22.00,23.00,Sunday
7,1.2616666666666667
14,1.7374702766081613
2,1,12, 1, 0, 3,23.00,24.00,Sunday
7,1.26
14,1.7402357882362183
2,1,12, 1, 0, 3,24.00,25.00,Sunday
7,1.2583333333333333
14,1.7430017046960153
2,1,12, 1, 0, 3,25.00,26.00,Sunday
7,1.2566666666666668
14,1.7457662033287258
2,1,12, 1, 0, 3,26.00,27.00,Sunday
7,1.2550000000000001
14,1.7485277043518914
2,1,12, 1, 0, 3,27.00,28.00,Sunday
7,1.2533333333333334
14,1.7512848376342962
2,1,12, 1, 0, 3,28.00,29.00,Sunday
7,1.2516666666666665
14,1.7540364141091591
2,1,12, 1, 0, 3,29.00,30.00,Sunday
7,1.25
14,1.7567814011674099
2,1,12, 1, 0, 3,30.00,31.00,Sunday
7,1.2483333333333333
14,1.7595189014462278
2,1,12, 1, 0, 3,31.00,32.00,Sunday
7,1.2466666666666666
14,1.7622481345653127
2,1,12, 1, 0, 3,32.00,33.00,Sunday
7,1.245
14,1.7649684214577013
2,1,12, 1, 0, 3,33.00,34.00,Sunday
7,1.2433333333333332
14,1.7676791708311548
2,1,12, 1, 0, 3,34.00,35.00,Sunday
7,1.2416666666666667
14,1.7703798674791134
2,1,12, 1, 0, 3,35.00,36.00,Sunday
7,1.24
14,1.7730700622020377
2,1,12, 1, 0, 3,36.00,37.00,Sunday
7,1.2383333333333333
14,1.7757493631399586
2,1,12, 1, 0, 3,37.00,38.00,Sunday
7,1.2366666666666666
14,1.778417428316464
2,1,12, 1, 0, 3,38.00,39.00,Sunday
7,1.2349999999999999
14,1.781073959213932
2,1,12, 1, 0, 3,39.00,40.00,Sunday
7,1.2333333333333334
14,1.783718695227487
2,1,12, 1, 0, 3,40.00,41.00,Sunday
7,1.2316666666666667
14,1.7863514088709183
2,1,12, 1, 0, 3,41.00,42.00,Sunday
7,1.23
14,1.78897190162863
2,1,12, 1, 0, 3,42.00,43.00,Sunday
7,1.2283333333333333
14,1.7915800003634603
2,1,12, 1, 0, 3,43.00,44.00,Sunday
7,1.2266666666666666
14,1.794175554203364
2,1,12, 1, 0, 3,44.00,45.00,Sunday
7,1.2249999999999999
14,1.7967584318407015
2,1,12, 1, 0, 3,45.00,46.00,Sunday
7,1.2233333333333334
14,1.7993285191871309
2,1,12, 1, 0, 3,46.00,47.00,Sunday
7,1.2216666666666667
14,1.8018857173349991
2,1,12, 1, 0, 3,47.00,48.00,Sunday
7,1.22
14,1.8044299407832236
2,1,12, 1, 0, 3,48.00,49.00,Sunday
7,1.2183333333333333
14,1.8069611158911292
2,1,12, 1, 0, 3,49.00,50.00,Sunday
7,1.2166666666666666
14,1.8094791795292753
2,1,12, 1, 0, 3,50.00,51.00,Sunday
7,1.215
14,1.8119840779005558
2,1,12, 1, 0, 3,51.00,52.00,Sunday
7,1.2133333333333334
14,1.8144757655084238
2,1,12, 1, 0, 3,52.00,53.00,Sunday
7,1.2116666666666664
14,1.8169542042523672
2,1,12, 1, 0, 3,53.00,54.00,Sunday
7,1.21
14,1.819419362633687
2,1,12, 1, 0, 3,54.00,55.00,Sunday
7,1.2083333333333333
14,1.821871215057026
2,1,12, 1, 0, 3,55.00,56.00,Sunday
7,1.2066666666666666
14,1.8243097412145977
2,1,12, 1, 0, 3,56.00,57.00,Sunday
7,1.205
14,1.8267349255425598
2,1,12, 1, 0, 3,57.00,58.00,Sunday
7,1.2033333333333331
14,1.8291467567401916
2,1,12, 1, 0, 3,58.00,59.00,Sunday
7,1.2016666666666667
14,1.8315452273435617
2,1,12, 1, 0, 3,59.00,60.00,Sunday
7,1.2
14,1.833930333346736
2,1,12, 1, 0, 4, 0.00, 1.00,Sunday
7,1.1983333333333333
14,1.8361646728858028
2,1,12, 1, 0, 4, 1.00, 2.00,Sunday
7,1.1966666666666665
14,1.8379783463695583
2,1,12, 1, 0, 4, 2.00, 3.00,Sunday
7,1.1949999999999998
14,1.8392300066896994
2,1,12, 1, 0, 4, 3.00, 4.00,Sunday
7,1.1933333333333331
14,1.8399157821392136
2,1,12, 1, 0, 4, 4.00, 5.00,Sunday
7,1.1916666666666664
14,1.8401005007226616
2,1,12, 1, 0, 4, 5.00, 6.00,Sunday
7,1.1900000000000002
14,1.8398632896764737
2,1,12, 1, 0, 4, 6.00, 7.00,Sunday
7,1.1883333333333332
14,1.839273792082566
2,1,12, 1, 0, 4, 7.00, 8.00,Sunday
7,1.1866666666666668
14,1.8383876945989956
2,1,12, 1, 0, 4, 8.00, 9.00,Sunday
7,1.185
14,1.8372493608509237
2,1,12, 1, 0, 4, 9.00,10.00,Sunday
7,1.1833333333333333
14,1.835895216907043
2,1,12, 1, 0, 4,10.00,11.00,Sunday
7,1.1816666666666666
14,1.8343560252902622
2,1,12, 1, 0, 4,11.00,12.00,Sunday
7,1.18
14,1.8326650822100752
2,1,12, 1, 0, 4,12.00,13.00,Sunday
7,1.1783333333333332
14,1.830838371919994
2,1,12, 1, 0, 4,13.00,14.00,Sunday
7,1.1766666666666667
14,1.8288990109381367
2,1,12, 1, 0, 4,14.00,15.00,Sunday
7,1.1749999999999998
14,1.8268559626853405
2,1,12, 1, 0, 4,15.00,16.00,Sunday
7,1.1733333333333333
14,1.8247289324047806
2,1,12, 1, 0, 4,16.00,17.00,Sunday
7,1.1716666666666666
14,1.822523751443865
2,1,12, 1, 0, 4,17.00,18.00,Sunday
7,1.17
14,1.8202572125986083
2,1,12, 1, 0, 4,18.00,19.00,Sunday
7,1.1683333333333332
14,1.81793196192793
2,1,12, 1, 0, 4,19.00,20.00,Sunday
7,1.1666666666666667
14,1.8155620948763151
2,1,12, 1, 0, 4,20.00,21.00,Sunday
7,1.165
14,1.8131477076207694
2,1,12, 1, 0, 4,21.00,22.00,Sunday
7,1.163333333333333
14,1.810700906505139
2,1,12, 1, 0, 4,22.00,23.00,Sunday
7,1.1616666666666666
14,1.8082199554597003
2,1,12, 1, 0, 4,23.00,24.00,Sunday
7,1.1600000000000001
14,1.805715546349319
2,1,12, 1, 0, 4,24.00,25.00,Sunday
7,1.1583333333333332
14,1.8031846195797787
2,1,12, 1, 0, 4,25.00,26.00,Sunday
7,1.1566666666666667
14,1.8006368454718669
2,1,12, 1, 0, 4,26.00,27.00,Sunday
7,1.155
14,1.7980681965947365
2,1,12, 1, 0, 4,27.00,28.00,Sunday
7,1.1533333333333333
14,1.795487600991159
2,1,12, 1, 0, 4,28.00,29.00,Sunday
7,1.1516666666666666
14,1.7928903214102014
2,1,12, 1, 0, 4,29.00,30.00,Sunday
7,1.15
14,1.7902847461939957
2,1,12, 1, 0, 4,30.00,31.00,Sunday
7,1.1483333333333334
14,1.7876656165301972
2,1,12, 1, 0, 4,31.00,32.00,Sunday
7,1.1466666666666665
14,1.7850410986153875
2,1,12, 1, 0, 4,32.00,33.00,Sunday
7,1.145
14,1.782422161335861
2,1,12, 1, 0, 4,33.00,34.00,Sunday
7,1.1433333333333335
14,1.779817297383984
2,1,12, 1, 0, 4,34.00,35.00,Sunday
7,1.1416666666666666
14,1.777229289648277
2,1,12, 1, 0, 4,35.00,36.00,Sunday
7,1.1400000000000001
14,1.7746570672434387
2,1,12, 1, 0, 4,36.00,37.00,Sunday
7,1.1383333333333334
14,1.7720981577549921
2,1,12, 1, 0, 4,37.00,38.00,Sunday
7,1.1366666666666667
14,1.7695500961124362
2,1,12, 1, 0, 4,38.00,39.00,Sunday
7,1.135
14,1.7670108811631773
2,1,12, 1, 0, 4,39.00,40.00,Sunday
7,1.1333333333333333
14,1.7644789695675966
2,1,12, 1, 0, 4,40.00,41.00,Sunday
7,1.1316666666666666
14,1.7619531500988177
2,1,12, 1, 0, 4,41.00,42.00,Sunday
7,1.1300000000000001
14,1.7594324378291502
2,1,12, 1, 0, 4,42.00,43.00,Sunday
7,1.1283333333333334
14,1.7569160119459057
2,1,12, 1, 0, 4,43.00,44.00,Sunday
7,1.1266666666666667
14,1.75440318275456
2,1,12, 1, 0, 4,44.00,45.00,Sunday
7,1.125
14,1.75189337179895
2,1,12, 1, 0, 4,45.00,46.00,Sunday
7,1.1233333333333335
14,1.7493860964531505
2,1,12, 1, 0, 4,46.00,47.00,Sunday
7,1.1216666666666666
14,1.7468809561086243
2,1,12, 1, 0, 4,47.00,48.00,Sunday
7,1.12
14,1.7443776196179814
2,1,12, 1, 0, 4,48.00,49.00,Sunday
7,1.1183333333333334
14,1.741875814226288
2,1,12, 1, 0, 4,49.00,50.00,Sunday
7,1.1166666666666667
14,1.739375316088612
2,1,12, 1, 0, 4,50.00,51.00,Sunday
7,1.115
14,1.7368759422715379
2,1,12, 1, 0, 4,51.00,52.00,Sunday
7,1.1133333333333335
14,1.7343775440392473
2,1,12, 1, 0, 4,52.00,53.00,Sunday
7,1.1116666666666668
14,1.7318800012153752
2,1,12, 1, 0, 4,53.00,54.00,Sunday
7,1.11
14,1.7293832174404662
2,1,12, 1, 0, 4,54.00,55.00,Sunday
7,1.1083333333333334
14,1.726887116178774
2,1,12, 1, 0, 4,55.00,56.00,Sunday
7,1.106666666666667
14,1.7243916373562156
2,1,12, 1, 0, 4,56.00,57.00,Sunday
7,1.105
14,1.7218967345316896
2,1,12, 1, 0, 4,57.00,58.00,Sunday
7,1.1033333333333335
14,1.7194023725195122
2,1,12, 1, 0, 4,58.00,59.00,Sunday
7,1.1016666666666668
14,1.7169085253934189
2,1,12, 1, 0, 4,59.00,60.00,Sunday
7,1.1
14,1.714415174812802
2,1,12, 1, 0, 5, 0.00, 1.00,Sunday
7,1.0966666666666667
14,1.7118632925030675
2,1,12, 1, 0, 5, 1.00, 2.00,Sunday
7,1.0933333333333335
14,1.7091353593043213
2,1,12, 1, 0, 5, 2.00, 3.00,Sunday
7,1.0899999999999999
14,1.7061665800846197
2,1,12, 1, 0, 5, 3.00, 4.00,Sunday
7,1.086666666666667
14,1.7029529160686445
2,1,12, 1, 0, 5, 4.00, 5.00,Sunday
7,1.0833333333333333
14,1.6995220280343775
2,1,12, 1, 0, 5, 5.00, 6.00,Sunday
7,1.08
14,1.695908815761188
2,1,12, 1, 0, 5, 6.00, 7.00,Sunday
7,1.0766666666666667
14,1.6921442436489444
2,1,12, 1, 0, 5, 7.00, 8.00,Sunday
7,1.0733333333333335
14,1.6882530102134796
2,1,12, 1, 0, 5, 8.00, 9.00,Sunday
7,1.07
14,1.6842546392607263
2,1,12, 1, 0, 5, 9.00,10.00,Sunday
7,1.0666666666666667
14,1.6801650251040492
2,1,12, 1, 0, 5,10.00,11.00,Sunday
7,1.0633333333333335
14,1.6759975016246837
2,1,12, 1, 0, 5,11.00,12.00,Sunday
7,1.06
14,1.6717634343148837
2,1,12, 1, 0, 5,12.00,13.00,Sunday
7,1.0566666666666666
14,1.66747254889631
2,1,12, 1, 0, 5,13.00,14.00,Sunday
7,1.0533333333333335
14,1.6631331553574242
2,1,12, 1, 0, 5,14.00,15.00,Sunday
7,1.05
14,1.658752337585049
2,1,12, 1, 0, 5,15.00,16.00,Sunday
7,1.0466666666666669
14,1.6543361263363339
2,1,12, 1, 0, 5,16.00,17.00,Sunday
7,1.0433333333333334
14,1.6498896548832709
2,1,12, 1, 0, 5,17.00,18.00,Sunday
7,1.04
14,1.6454172947986672
2,1,12, 1, 0, 5,18.00,19.00,Sunday
7,1.0366666666666666
14,1.6409227718648352
2,1,12, 1, 0, 5,19.00,20.00,Sunday
7,1.0333333333333334
14,1.6364092640794117
2,1,12, 1, 0, 5,20.00,21.00,Sunday
7,1.03
14,1.6318794843990791
2,1,12, 1, 0, 5,21.00,22.00,Sunday
7,1.0266666666666666
14,1.6273357507146546
2,1,12, 1, 0, 5,22.00,23.00,Sunday
7,1.0233333333333334
14,1.6227800451397596
2,1,12, 1, 0, 5,23.00,24.00,Sunday
7,1.02
14,1.6182140642999445
2,1,12, 1, 0, 5,24.00,25.00,Sunday
7,1.0166666666666666
14,1.6136392620034528
2,1,12, 1, 0, 5,25.00,26.00,Sunday
7,1.0133333333333334
14,1.6090568854475342
2,1,12, 1, 0, 5,26.00,27.00,Sunday
7,1.0100000000000002
14,1.60446800593805
2,1,12, 1, 0, 5,27.00,28.00,Sunday
7,1.0066666666666668
14,1.5998735449543173
2,1,12, 1, 0, 5,28.00,29.00,Sunday
7,1.0033333333333334
14,1.5952742962674278
2,1,12, 1, 0, 5,29.00,30.00,Sunday
7,1.0
14,1.5906709447137932
2,1,12, 1, 0, 5,30.00,31.00,Sunday
7,0.9966666666666667
14,1.5860640821340504
2,1,12, 1, 0, 5,31.00,32.00,Sunday
7,0.9933333333333334
14,1.5814542209096623
2,1,12, 1, 0, 5,32.00,33.00,Sunday
7,0.99
14,1.5768418054635618
2,1,12, 1, 0, 5,33.00,34.00,Sunday
7,0.9866666666666668
14,1.5722272220350344
2,1,12, 1, 0, 5,34.00,35.00,Sunday
7,0.9833333333333334
14,1.56761080699154
2,1,12, 1, 0, 5,35.00,36.00,Sunday
7,0.9800000000000001
14,1.5629928539000886
2,1,12, 1, 0, 5,36.00,37.00,Sunday
7,0.9766666666666668
14,1.5583736195468403
2,1,12, 1, 0, 5,37.00,38.00,Sunday
7,0.9733333333333334
14,1.5537533290645937
2,1,12, 1, 0, 5,38.00,39.00,Sunday
7,0.9700000000000001
14,1.54913218030333
2,1,12, 1, 0, 5,39.00,40.00,Sunday
7,0.9666666666666668
14,1.5445103475585635
2,1,12, 1, 0, 5,40.00,41.00,Sunday
7,0.9633333333333334
14,1.5398879847545683
2,1,12, 1, 0, 5,41.00,42.00,Sunday
7,0.9600000000000001
14,1.53526522816462
2,1,12, 1, 0, 5,42.00,43.00,Sunday
7,0.9566666666666668
14,1.5306421987380485
2,1,12, 1, 0, 5,43.00,44.00,Sunday
7,0.9533333333333334
14,1.5260190040930948
2,1,12, 1, 0, 5,44.00,45.00,Sunday
7,0.9500000000000001
14,1.521395740225463
2,1,12, 1, 0, 5,45.00,46.00,Sunday
7,0.9466666666666668
14,1.5167724929752051
2,1,12, 1, 0, 5,46.00,47.00,Sunday
7,0.9433333333333334
14,1.5121493392878587
2,1,12, 1, 0, 5,47.00,48.00,Sunday
7,0.9400000000000001
14,1.5075263483002503
2,1,12, 1, 0, 5,48.00,49.00,Sunday
7,0.9366666666666666
14,1.5029035822767927
2,1,12, 1, 0, 5,49.00,50.00,Sunday
7,0.9333333333333333
14,1.4982810974183325
2,1,12, 1, 0, 5,50.00,51.00,Sunday
7,0.93
14,1.4936589445621085
2,1,12, 1, 0, 5,51.00,52.00,Sunday
7,0.9266666666666666
14,1.489037169788583
2,1,12, 1, 0, 5,52.00,53.00,Sunday
7,0.9233333333333335
14,1.484415814948717
2,1,12, 1, 0, 5,53.00,54.00,Sunday
7,0.92
14,1.4797949181230396
2,1,12, 1, 0, 5,54.00,55.00,Sunday
7,0.9166666666666666
14,1.4751745140221781
2,1,12, 1, 0, 5,55.00,56.00,Sunday
7,0.9133333333333334
14,1.4705546343370997
2,1,12, 1, 0, 5,56.00,57.00,Sunday
7,0.91
14,1.465935308046214
2,1,12, 1, 0, 5,57.00,58.00,Sunday
7,0.9066666666666666
14,1.46131656168523
2,1,12, 1, 0, 5,58.00,59.00,Sunday
7,0.9033333333333334
14,1.4566960536170335
2,1,12, 1, 0, 5,59.00,60.00,Sunday
7,0.9
14,1.4520713660362126
2,1,12, 1, 0, 6, 0.00, 1.00,Sunday
7,0.9
14,1.447596941516785
2,1,12, 1, 0, 6, 1.00, 2.00,Sunday
7,0.9
14,1.4435736029463884
2,1,12, 1, 0, 6, 2.00, 3.00,Sunday
7,0.9
14,1.4401549993321094
2,1,12, 1, 0, 6, 3.00, 4.00,Sunday
7,0.9000000000000001
14,1.4373416416524734
2,1,12, 1, 0, 6, 4.00, 5.00,Sunday
7,0.8999999999999999
14,1.4350587669237225
2,1,12, 1, 0, 6, 5.00, 6.00,Sunday
7,0.9
14,1.4332173765113398
2,1,12, 1, 0, 6, 6.00, 7.00,Sunday
7,0.9
14,1.4317405607405345
2,1,12, 1, 0, 6, 7.00, 8.00,Sunday
7,0.9
14,1.4305679862422014
2,1,12, 1, 0, 6, 8.00, 9.00,Sunday
7,0.9
14,1.4296524586443087
2,1,12, 1, 0, 6, 9.00,10.00,Sunday
7,0.9
14,1.4289557943625761
2,1,12, 1, 0, 6,10.00,11.00,Sunday
7,0.8999999999999999
14,1.4284460866952648
2,1,12, 1, 0, 6,11.00,12.00,Sunday
7,0.9000000000000001
14,1.4280959326636222
2,1,12, 1, 0, 6,12.00,13.00,Sunday
7,0.8999999999999999
14,1.4278820247600958
2,1,12, 1, 0, 6,13.00,14.00,Sunday
7,0.8999999999999999
14,1.4277846422789195
2,1,12, 1, 0, 6,14.00,15.00,Sunday
7,0.9
14,1.4277871294053466
2,1,12, 1, 0, 6,15.00,16.00,Sunday
7,0.9
14,1.427875372063232
2,1,12, 1, 0, 6,16.00,17.00,Sunday
7,0.9
14,1.4280373700573772
2,1,12, 1, 0, 6,17.00,18.00,Sunday
7,0.9
14,1.428262898358727
2,1,12, 1, 0, 6,18.00,19.00,Sunday
7,0.8999999999999999
14,1.4285432340080033
2,1,12, 1, 0, 6,19.00,20.00,Sunday
7,0.9000000000000001
14,1.428870929637316
2,1,12, 1, 0, 6,20.00,21.00,Sunday
7,0.9000000000000001
14,1.4292396222003383
2,1,12, 1, 0, 6,21.00,22.00,Sunday
7,0.8999999999999999
14,1.429643870386669
2,1,12, 1, 0, 6,22.00,23.00,Sunday
7,0.9000000000000001
14,1.4300790164207084
2,1,12, 1, 0, 6,23.00,24.00,Sunday
7,0.9000000000000001
14,1.4305410687964697
2,1,12, 1, 0, 6,24.00,25.00,Sunday
7,0.8999999999999999
14,1.4310266029013174
2,1,12, 1, 0, 6,25.00,26.00,Sunday
7,0.9
14,1.4315326768220045
2,1,12, 1, 0, 6,26.00,27.00,Sunday
7,0.9000000000000001
14,1.4320567599835707
2,1,12, 1, 0, 6,27.00,28.00,Sunday
7,0.9
14,1.4325966726237505
2,1,12, 1, 0, 6,28.00,29.00,Sunday
7,0.8999999999999999
14,1.4331505344219113
2,1,12, 1, 0, 6,29.00,30.00,Sunday
7,0.9
14,1.4337167208705082
2,1,12, 1, 0, 6,30.00,31.00,Sunday
7,0.9
14,1.434293826201054
2,1,12, 1, 0, 6,31.00,32.00,Sunday
7,0.9
14,1.434880631862666
2,1,12, 1, 0, 6,32.00,33.00,Sunday
7,0.9
14,1.435476079706758
2,1,12, 1, 0, 6,33.00,34.00,Sunday
7,0.9
14,1.4360792491619325
2,1,12, 1, 0, 6,34.00,35.00,Sunday
7,0.9
14,1.436689337793202
2,1,12, 1, 0, 6,35.00,36.00,Sunday
7,0.9000000000000001
14,1.4373056447330146
2,1,12, 1, 0, 6,36.00,37.00,Sunday
7,0.9
14,1.4379275565498688
2,1,12, 1, 0, 6,37.00,38.00,Sunday
7,0.8999999999999999
14,1.4385545351869438
2,1,12, 1, 0, 6,38.00,39.00,Sunday
7,0.9000000000000001
14,1.4391861076596553
2,1,12, 1, 0, 6,39.00,40.00,Sunday
7,0.9
14,1.4398218572479717
2,1,12, 1, 0, 6,40.00,41.00,Sunday
7,0.8999999999999999
14,1.4404614159599454
2,1,12, 1, 0, 6,41.00,42.00,Sunday
7,0.9000000000000001
14,1.4411044580769667
2,1,12, 1, 0, 6,42.00,43.00,Sunday
7,0.9
14,1.441750694619627
2,1,12, 1, 0, 6,43.00,44.00,Sunday
7,0.8999999999999999
14,1.4423998685978603
2,1,12, 1, 0, 6,44.00,45.00,Sunday
7,0.9
14,1.4430517509294774
2,1,12, 1, 0, 6,45.00,46.00,Sunday
7,0.9
14,1.4437061369285158
2,1,12, 1, 0, 6,46.00,47.00,Sunday
7,0.8999999999999999
14,1.4443628432801396
2,1,12, 1, 0, 6,47.00,48.00,Sunday
7,0.9
14,1.4450217054309813
2,1,12, 1, 0, 6,48.00,49.00,Sunday
7,0.9
14,1.4456825753343658
2,1,12, 1, 0, 6,49.00,50.00,Sunday
7,0.8999999999999999
14,1.4463453194993234
2,1,12, 1, 0, 6,50.00,51.00,Sunday
7,0.9
14,1.4470098172995827
2,1,12, 1, 0, 6,51.00,52.00,Sunday
7,0.9
14,1.4476759595054316
2,1,12, 1, 0, 6,52.00,53.00,Sunday
7,0.9
14,1.4483436470067683
2,1,12, 1, 0, 6,53.00,54.00,Sunday
7,0.9
14,1.4490127897002658
2,1,12, 1, 0, 6,54.00,55.00,Sunday
7,0.9
14,1.4496833055177736
2,1,12, 1, 0, 6,55.00,56.00,Sunday
7,0.9
14,1.4503551195762134
2,1,12, 1, 0, 6,56.00,57.00,Sunday
7,0.9
14,1.451028163432279
2,1,12, 1, 0, 6,57.00,58.00,Sunday
7,0.9
14,1.4517023744275508
2,1,12, 1, 0, 6,58.00,59.00,Sunday
7,0.9
14,1.4523776951118315
2,1,12, 1, 0, 6,59.00,60.00,Sunday
7,0.9
14,1.4530540727342454
2,1,12, 1, 0, 7, 0.00, 1.00,Sunday
7,0.9016666666666667
14,1.4536573599423064
2,1,12, 1, 0, 7, 1.00, 2.00,Sunday
7,0.9033333333333333
14,1.4540411677813714
2,1,12, 1, 0, 7, 2.00, 3.00,Sunday
7,0.905
14,1.4541361250788758
2,1,12, 1, 0, 7, 3.00, 4.00,Sunday
7,0.9066666666666667
14,1.4539441805584028
2,1,12, 1, 0, 7, 4.00, 5.00,Sunday
7,0.9083333333333333
14,1.4535005864469037
2,1,12, 1, 0, 7, 5.00, 6.00,Sunday
7,0.91
14,1.452846312384336
2,1,12, 1, 0, 7, 6.00, 7.00,Sunday
7,0.9116666666666667
14,1.4520166692007987
2,1,12, 1, 0, 7, 7.00, 8.00,Sunday
7,0.9133333333333333
14,1.4510395618915677
2,1,12, 1, 0, 7, 8.00, 9.00,Sunday
7,0.915
14,1.4499370820008162
2,1,12, 1, 0, 7, 9.00,10.00,Sunday
7,0.9166666666666666
14,1.4487273151619473
2,1,12, 1, 0, 7,10.00,11.00,Sunday
7,0.9183333333333333
14,1.4474255126131572
2,1,12, 1, 0, 7,11.00,12.00,Sunday
7,0.9200000000000002
14,1.4460447190595693
2,1,12, 1, 0, 7,12.00,13.00,Sunday
7,0.9216666666666666
14,1.444596121459467
2,1,12, 1, 0, 7,13.00,14.00,Sunday
7,0.9233333333333333
14,1.4430892943689468
2,1,12, 1, 0, 7,14.00,15.00,Sunday
7,0.925
14,1.441532413187455
2,1,12, 1, 0, 7,15.00,16.00,Sunday
7,0.9266666666666667
14,1.439928153776907
2,1,12, 1, 0, 7,16.00,17.00,Sunday
7,0.9283333333333333
14,1.4382822915771876
2,1,12, 1, 0, 7,17.00,18.00,Sunday
7,0.9299999999999999
14,1.4366019336392004
2,1,12, 1, 0, 7,18.00,19.00,Sunday
7,0.9316666666666666
14,1.4348937377416369
2,1,12, 1, 0, 7,19.00,20.00,Sunday
7,0.9333333333333333
14,1.4331626686150363
2,1,12, 1, 0, 7,20.00,21.00,Sunday
7,0.935
14,1.4314122144314343
2,1,12, 1, 0, 7,21.00,22.00,Sunday
7,0.9366666666666665
14,1.4296449539563942
2,1,12, 1, 0, 7,22.00,23.00,Sunday
7,0.9383333333333335
14,1.4278629677633257
2,1,12, 1, 0, 7,23.00,24.00,Sunday
7,0.9400000000000001
14,1.4260680370838679
2,1,12, 1, 0, 7,24.00,25.00,Sunday
7,0.9416666666666667
14,1.42426171717824
2,1,12, 1, 0, 7,25.00,26.00,Sunday
7,0.9433333333333334
14,1.422449462111212
2,1,12, 1, 0, 7,26.00,27.00,Sunday
7,0.9450000000000001
14,1.4206366638154242
2,1,12, 1, 0, 7,27.00,28.00,Sunday
7,0.9466666666666667
14,1.4188265735564423
2,1,12, 1, 0, 7,28.00,29.00,Sunday
7,0.9483333333333333
14,1.4170200839542964
2,1,12, 1, 0, 7,29.00,30.00,Sunday
7,0.95
14,1.4152167850390396
2,1,12, 1, 0, 7,30.00,31.00,Sunday
7,0.9516666666666667
14,1.4134158827418446
2,1,12, 1, 0, 7,31.00,32.00,Sunday
7,0.9533333333333334
14,1.411616641392074
2,1,12, 1, 0, 7,32.00,33.00,Sunday
7,0.9550000000000001
14,1.4098184947834884
2,1,12, 1, 0, 7,33.00,34.00,Sunday
7,0.9566666666666667
14,1.4080210217145597
2,1,12, 1, 0, 7,34.00,35.00,Sunday
7,0.9583333333333334
14,1.406223898037042
2,1,12, 1, 0, 7,35.00,36.00,Sunday
7,0.96
14,1.4044268627342278
2,1,12, 1, 0, 7,36.00,37.00,Sunday
7,0.9616666666666667
14,1.4026297000650483
2,1,12, 1, 0, 7,37.00,38.00,Sunday
7,0.9633333333333334
14,1.4008322307833838
2,1,12, 1, 0, 7,38.00,39.00,Sunday
7,0.9650000000000001
14,1.39903430685203
2,1,12, 1, 0, 7,39.00,40.00,Sunday
7,0.9666666666666667
14,1.3972358071099655
2,1,12, 1, 0, 7,40.00,41.00,Sunday