Program Version,EnergyPlus, Version 25.1.0-1c11a3d85f, YMD=2026.04.10 14:05
1,5,Environment Title[],Latitude[deg],Longitude[deg],Time Zone[],Elevation[m]
2,8,Day of Simulation[],Month[],Day of Month[],DST Indicator[1=yes 0=no],Hour[],StartMinute[],EndMinute[],DayType
3,5,Cumulative Day of Simulation[],Month[],Day of Month[],DST Indicator[1=yes 0=no],DayType  ! When Daily Report Variables Requested
4,2,Cumulative Days of Simulation[],Month[]  ! When Monthly Report Variables Requested
5,1,Cumulative Days of Simulation[] ! When Run Period Report Variables Requested
6,1,Calendar Year of Simulation[] ! When Annual Report Variables Requested
7,1,Environment,Site Outdoor Air Drybulb Temperature [C] !TimeStep
8,1,WALL_N,Surface Inside Face Temperature [C] !Hourly
9,1,WALL_S,Surface Inside Face Temperature [C] !Hourly
10,1,WALL_E,Surface Inside Face Temperature [C] !Hourly
11,1,WALL_W,Surface Inside Face Temperature [C] !Hourly
12,1,FLOOR,Surface Inside Face Temperature [C] !Hourly
13,1,ROOF,Surface Inside Face Temperature [C] !Hourly
14,1,ROOF_GLASS,Surface Inside Face Temperature [C] !Hourly
15,1,WALL_N_GLASS,Surface Inside Face Temperature [C] !Hourly
16,1,WALL_S_GLASS,Surface Inside Face Temperature [C] !Hourly
17,1,WALL_E_GLASS,Surface Inside Face Temperature [C] !Hourly
18,1,WALL_W_GLASS,Surface Inside Face Temperature [C] !Hourly
19,1,GREENHOUSE,Zone Mean Air Temperature [C] !TimeStep
End of Data Dictionary
1,RUN PERIOD 1,  45.73,   5.08,   1.00, 240.00
2,1, 7, 1, 0, 1, 0.00, 1.00,Sunday
7,16.97
19,39.868003895114306
2,1, 7, 1, 0, 1, 1.00, 2.00,Sunday
7,16.94
19,39.83785863330915
2,1, 7, 1, 0, 1, 2.00, 3.00,Sunday
7,16.91
19,39.806559035945035
2,1, 7, 1, 0, 1, 3.00, 4.00,Sunday
7,16.88
19,39.774170772015715
2,1, 7, 1, 0, 1, 4.00, 5.00,Sunday
7,16.849999999999998
19,39.740810750669624
2,1, 7, 1, 0, 1, 5.00, 6.00,Sunday
7,16.82
19,39.70658838368917
2,1, 7, 1, 0, 1, 6.00, 7.00,Sunday
7,16.79
19,39.67159438932884
2,1, 7, 1, 0, 1, 7.00, 8.00,Sunday
7,16.76
19,39.63590499497057
2,1, 7, 1, 0, 1, 8.00, 9.00,Sunday
7,16.73
19,39.599587046812296
2,1, 7, 1, 0, 1, 9.00,10.00,Sunday
7,16.700000000000003
19,39.56270078254674
2,1, 7, 1, 0, 1,10.00,11.00,Sunday
7,16.669999999999998
19,39.525300924492555
2,1, 7, 1, 0, 1,11.00,12.00,Sunday
7,16.64
19,39.487437126471534
2,1, 7, 1, 0, 1,12.00,13.00,Sunday
7,16.61
19,39.44915430931478
2,1, 7, 1, 0, 1,13.00,14.00,Sunday
7,16.58
19,39.41049302961038
2,1, 7, 1, 0, 1,14.00,15.00,Sunday
7,16.55
19,39.37148987180074
2,1, 7, 1, 0, 1,15.00,16.00,Sunday
7,16.520000000000003
19,39.33217782986625
2,1, 7, 1, 0, 1,16.00,17.00,Sunday
7,16.490000000000002
19,39.29258665962121
2,1, 7, 1, 0, 1,17.00,18.00,Sunday
7,16.459999999999997
19,39.252743197061605
2,1, 7, 1, 0, 1,18.00,19.00,Sunday
7,16.43
19,39.21267164478792
2,1, 7, 1, 0, 1,19.00,20.00,Sunday
7,16.4
19,39.17239383002065
2,1, 7, 1, 0, 1,20.00,21.00,Sunday
7,16.37
19,39.13192943738056
2,1, 7, 1, 0, 1,21.00,22.00,Sunday
7,16.339999999999996
19,39.09129621901577
2,1, 7, 1, 0, 1,22.00,23.00,Sunday
7,16.310000000000002
19,39.0505101842547
2,1, 7, 1, 0, 1,23.00,24.00,Sunday
7,16.28
19,39.00958577072198
2,1, 7, 1, 0, 1,24.00,25.00,Sunday
7,16.25
19,38.96853599868723
2,1, 7, 1, 0, 1,25.00,26.00,Sunday
7,16.22
19,38.92737261026605
2,1, 7, 1, 0, 1,26.00,27.00,Sunday
7,16.19
19,38.88610619494909
2,1, 7, 1, 0, 1,27.00,28.00,Sunday
7,16.16
19,38.84474630279886
2,1, 7, 1, 0, 1,28.00,29.00,Sunday
7,16.13
19,38.80330154652313
2,1, 7, 1, 0, 1,29.00,30.00,Sunday
7,16.1
19,38.76189565946306
2,1, 7, 1, 0, 1,30.00,31.00,Sunday
7,16.07
19,38.72068345239452
2,1, 7, 1, 0, 1,31.00,32.00,Sunday
7,16.04
19,38.67972710704826
2,1, 7, 1, 0, 1,32.00,33.00,Sunday
7,16.009999999999998
19,38.63902368340542
2,1, 7, 1, 0, 1,33.00,34.00,Sunday
7,15.98
19,38.59854705948026
2,1, 7, 1, 0, 1,34.00,35.00,Sunday
7,15.95
19,38.558269750330545
2,1, 7, 1, 0, 1,35.00,36.00,Sunday
7,15.92
19,38.518168885029525
2,1, 7, 1, 0, 1,36.00,37.00,Sunday
7,15.889999999999999
19,38.47822580101931
2,1, 7, 1, 0, 1,37.00,38.00,Sunday
7,15.86
19,38.438424552186035
2,1, 7, 1, 0, 1,38.00,39.00,Sunday
7,15.829999999999998
19,38.39875094227556
2,1, 7, 1, 0, 1,39.00,40.00,Sunday
7,15.8
19,38.359192111235984
2,1, 7, 1, 0, 1,40.00,41.00,Sunday
7,15.77
19,38.31973638402556
2,1, 7, 1, 0, 1,41.00,42.00,Sunday
7,15.739999999999998
19,38.280373188992954
2,1, 7, 1, 0, 1,42.00,43.00,Sunday
7,15.709999999999999
19,38.241092976635706
2,1, 7, 1, 0, 1,43.00,44.00,Sunday
7,15.68
19,38.2018871306302
2,1, 7, 1, 0, 1,44.00,45.00,Sunday
7,15.649999999999999
19,38.16274787874075
2,1, 7, 1, 0, 1,45.00,46.00,Sunday
7,15.620000000000001
19,38.12366820965672
2,1, 7, 1, 0, 1,46.00,47.00,Sunday
7,15.59
19,38.08464179780313
2,1, 7, 1, 0, 1,47.00,48.00,Sunday
7,15.559999999999999
19,38.04566293590743
2,1, 7, 1, 0, 1,48.00,49.00,Sunday
7,15.53
19,38.00672647443704
2,1, 7, 1, 0, 1,49.00,50.00,Sunday
7,15.499999999999998
19,37.9678277670539
2,1, 7, 1, 0, 1,50.00,51.00,Sunday
7,15.47
19,37.928962621409255
2,1, 7, 1, 0, 1,51.00,52.00,Sunday
7,15.44
19,37.89012725473546
2,1, 7, 1, 0, 1,52.00,53.00,Sunday
7,15.41
19,37.851318253771254
2,1, 7, 1, 0, 1,53.00,54.00,Sunday
7,15.379999999999999
19,37.81253253860397
2,1, 7, 1, 0, 1,54.00,55.00,Sunday
7,15.35
19,37.77376733005062
2,1, 7, 1, 0, 1,55.00,56.00,Sunday
7,15.319999999999999
19,37.73502012023214
2,1, 7, 1, 0, 1,56.00,57.00,Sunday
7,15.290000000000001
19,37.696288646028854
2,1, 7, 1, 0, 1,57.00,58.00,Sunday
7,15.26
19,37.65757086513468
2,1, 7, 1, 0, 1,58.00,59.00,Sunday
7,15.23
19,37.618864934455566
2,1, 7, 1, 0, 1,59.00,60.00,Sunday
7,15.2
19,37.58016919062262
2,1, 7, 1, 0, 1, 0.00,60.00,Sunday
8,26.6048131579325
9,26.804985896899645
10,26.812798472513613
11,26.809573246676326
12,50.1539734350159
13,27.351704049583287
14,27.276226358709412
15,25.795491972736734
16,25.982448596350523
17,25.991570776347544
18,25.99156400838108
2,1, 7, 1, 0, 2, 0.00, 1.00,Sunday
7,15.174999999999999
19,37.541766273310834
2,1, 7, 1, 0, 2, 1.00, 2.00,Sunday
7,15.15
19,37.503941508028376
2,1, 7, 1, 0, 2, 2.00, 3.00,Sunday
7,15.125
19,37.46682497812702
2,1, 7, 1, 0, 2, 3.00, 4.00,Sunday
7,15.1
19,37.430411226939796
2,1, 7, 1, 0, 2, 4.00, 5.00,Sunday
7,15.075
19,37.394638796657894
2,1, 7, 1, 0, 2, 5.00, 6.00,Sunday
7,15.05
19,37.35943850179451
2,1, 7, 1, 0, 2, 6.00, 7.00,Sunday
7,15.024999999999999
19,37.32474944239169
2,1, 7, 1, 0, 2, 7.00, 8.00,Sunday
7,15.0
19,37.290520023093904
2,1, 7, 1, 0, 2, 8.00, 9.00,Sunday
7,14.975
19,37.25670540729402
2,1, 7, 1, 0, 2, 9.00,10.00,Sunday
7,14.95
19,37.22326551241092
2,1, 7, 1, 0, 2,10.00,11.00,Sunday
7,14.924999999999999
19,37.190164028314186
2,1, 7, 1, 0, 2,11.00,12.00,Sunday
7,14.9
19,37.157367994745336
2,1, 7, 1, 0, 2,12.00,13.00,Sunday
7,14.875
19,37.12484755157965
2,1, 7, 1, 0, 2,13.00,14.00,Sunday
7,14.85
19,37.09257570433392
2,1, 7, 1, 0, 2,14.00,15.00,Sunday
7,14.825
19,37.06052807823576
2,1, 7, 1, 0, 2,15.00,16.00,Sunday
7,14.799999999999999
19,37.02868267395486
2,1, 7, 1, 0, 2,16.00,17.00,Sunday
7,14.774999999999999
19,36.99701963817601
2,1, 7, 1, 0, 2,17.00,18.00,Sunday
7,14.749999999999998
19,36.96552105435706
2,1, 7, 1, 0, 2,18.00,19.00,Sunday
7,14.725
19,36.934170753812225
2,1, 7, 1, 0, 2,19.00,20.00,Sunday
7,14.700000000000001
19,36.90295414536619
2,1, 7, 1, 0, 2,20.00,21.00,Sunday
7,14.674999999999997
19,36.871858061611476
2,1, 7, 1, 0, 2,21.00,22.00,Sunday
7,14.649999999999999
19,36.8408706200616
2,1, 7, 1, 0, 2,22.00,23.00,Sunday
7,14.625
19,36.80998109775502
2,1, 7, 1, 0, 2,23.00,24.00,Sunday
7,14.6
19,36.7791798180384
2,1, 7, 1, 0, 2,24.00,25.00,Sunday
7,14.575
19,36.748458048376946
2,1, 7, 1, 0, 2,25.00,26.00,Sunday
7,14.55
19,36.71780790813637
2,1, 7, 1, 0, 2,26.00,27.00,Sunday
7,14.524999999999999
19,36.687222285373174
2,1, 7, 1, 0, 2,27.00,28.00,Sunday
7,14.5
19,36.656694761757244
2,1, 7, 1, 0, 2,28.00,29.00,Sunday
7,14.474999999999998
19,36.626219544833575
2,1, 7, 1, 0, 2,29.00,30.00,Sunday
7,14.45
19,36.595791406906045
2,1, 7, 1, 0, 2,30.00,31.00,Sunday
7,14.425
19,36.56540562989617
2,1, 7, 1, 0, 2,31.00,32.00,Sunday
7,14.399999999999999
19,36.53505795559223
2,1, 7, 1, 0, 2,32.00,33.00,Sunday
7,14.375
19,36.50474454076138
2,1, 7, 1, 0, 2,33.00,34.00,Sunday
7,14.35
19,36.47446191664949
2,1, 7, 1, 0, 2,34.00,35.00,Sunday
7,14.325
19,36.444206952438776
2,1, 7, 1, 0, 2,35.00,36.00,Sunday
7,14.299999999999999
19,36.41397682227615
2,1, 7, 1, 0, 2,36.00,37.00,Sunday
7,14.275
19,36.38376897552315
2,1, 7, 1, 0, 2,37.00,38.00,Sunday
7,14.25
19,36.35358110991171
2,1, 7, 1, 0, 2,38.00,39.00,Sunday
7,14.224999999999998
19,36.323411147322275
2,1, 7, 1, 0, 2,39.00,40.00,Sunday
7,14.2
19,36.29325721192749
2,1, 7, 1, 0, 2,40.00,41.00,Sunday
7,14.174999999999999
19,36.26311761046946
2,1, 7, 1, 0, 2,41.00,42.00,Sunday
7,14.149999999999999
19,36.23299081446299
2,1, 7, 1, 0, 2,42.00,43.00,Sunday
7,14.125
19,36.20287544413585
2,1, 7, 1, 0, 2,43.00,44.00,Sunday
7,14.099999999999998
19,36.17277025393647
2,1, 7, 1, 0, 2,44.00,45.00,Sunday
7,14.075
19,36.14267411945618
2,1, 7, 1, 0, 2,45.00,46.00,Sunday
7,14.049999999999999
19,36.112586025627046
2,1, 7, 1, 0, 2,46.00,47.00,Sunday
7,14.024999999999999
19,36.08250505607138
2,1, 7, 1, 0, 2,47.00,48.00,Sunday
7,14.0
19,36.05243038348974
2,1, 7, 1, 0, 2,48.00,49.00,Sunday
7,13.975
19,36.0223612609869
2,1, 7, 1, 0, 2,49.00,50.00,Sunday
7,13.95
19,35.99229701424312
2,1, 7, 1, 0, 2,50.00,51.00,Sunday
7,13.925
19,35.962237034449025
2,1, 7, 1, 0, 2,51.00,52.00,Sunday
7,13.899999999999999
19,35.932242270006206
2,1, 7, 1, 0, 2,52.00,53.00,Sunday
7,13.874999999999998
19,35.902390312665254
2,1, 7, 1, 0, 2,53.00,54.00,Sunday
7,13.85
19,35.87271021205329
2,1, 7, 1, 0, 2,54.00,55.00,Sunday
7,13.825
19,35.84319704676618
2,1, 7, 1, 0, 2,55.00,56.00,Sunday
7,13.8
19,35.81383401869382
2,1, 7, 1, 0, 2,56.00,57.00,Sunday
7,13.774999999999999
19,35.78460391047723
2,1, 7, 1, 0, 2,57.00,58.00,Sunday
7,13.749999999999998
19,35.75549219611703
2,1, 7, 1, 0, 2,58.00,59.00,Sunday
7,13.725
19,35.726486797886764
2,1, 7, 1, 0, 2,59.00,60.00,Sunday
7,13.7
19,35.69757727781338
2,1, 7, 1, 0, 2, 0.00,60.00,Sunday
8,24.5916778366935
9,24.78916310088547
10,24.605272849275252
11,24.79689663786331
12,48.168561977940755
13,25.155857650437667
14,25.11042688583888
15,23.803611016477664
16,23.988074774924307
17,23.812358634938345
18,23.997106480527176
2,1, 7, 1, 0, 3, 0.00, 1.00,Sunday
7,13.68
19,35.66932656250005
2,1, 7, 1, 0, 3, 1.00, 2.00,Sunday
7,13.659999999999998
19,35.64192485121428
2,1, 7, 1, 0, 3, 2.00, 3.00,Sunday
7,13.639999999999999
19,35.61533940291459
2,1, 7, 1, 0, 3, 3.00, 4.00,Sunday
7,13.620000000000001
19,35.589473345643405
2,1, 7, 1, 0, 3, 4.00, 5.00,Sunday
7,13.599999999999998
19,35.564234490547584
2,1, 7, 1, 0, 3, 5.00, 6.00,Sunday
7,13.58
19,35.53954894758344
2,1, 7, 1, 0, 3, 6.00, 7.00,Sunday
7,13.559999999999999
19,35.515356548080725
2,1, 7, 1, 0, 3, 7.00, 8.00,Sunday
7,13.54
19,35.49160512315532
2,1, 7, 1, 0, 3, 8.00, 9.00,Sunday
7,13.52
19,35.4682475103546
2,1, 7, 1, 0, 3, 9.00,10.00,Sunday
7,13.5
19,35.44524052579388
2,1, 7, 1, 0, 3,10.00,11.00,Sunday
7,13.479999999999999
19,35.4225446795343
2,1, 7, 1, 0, 3,11.00,12.00,Sunday
7,13.46
19,35.400124000904555
2,1, 7, 1, 0, 3,12.00,13.00,Sunday
7,13.44
19,35.37794580416628
2,1, 7, 1, 0, 3,13.00,14.00,Sunday
7,13.419999999999998
19,35.355980408195634
2,1, 7, 1, 0, 3,14.00,15.00,Sunday
7,13.399999999999999
19,35.33428995677867
2,1, 7, 1, 0, 3,15.00,16.00,Sunday
7,13.38
19,35.31273704434365
2,1, 7, 1, 0, 3,16.00,17.00,Sunday
7,13.36
19,35.29128149179311
2,1, 7, 1, 0, 3,17.00,18.00,Sunday
7,13.339999999999998
19,35.26991689055159
2,1, 7, 1, 0, 3,18.00,19.00,Sunday
7,13.32
19,35.248642795377506
2,1, 7, 1, 0, 3,19.00,20.00,Sunday
7,13.3
19,35.22745151479183
2,1, 7, 1, 0, 3,20.00,21.00,Sunday
7,13.28
19,35.20633016404586
2,1, 7, 1, 0, 3,21.00,22.00,Sunday
7,13.259999999999998
19,35.18526454279191
2,1, 7, 1, 0, 3,22.00,23.00,Sunday
7,13.240000000000002
19,35.16424120108239
2,1, 7, 1, 0, 3,23.00,24.00,Sunday
7,13.219999999999999
19,35.14324797317624
2,1, 7, 1, 0, 3,24.00,25.00,Sunday
7,13.2
19,35.122273875590786
2,1, 7, 1, 0, 3,25.00,26.00,Sunday
7,13.18
19,35.10130889280413
2,1, 7, 1, 0, 3,26.00,27.00,Sunday
7,13.16
19,35.080343815800944
2,1, 7, 1, 0, 3,27.00,28.00,Sunday
7,13.139999999999999
19,35.05937013947406
2,1, 7, 1, 0, 3,28.00,29.00,Sunday
7,13.12
19,35.03837999104396
2,1, 7, 1, 0, 3,29.00,30.00,Sunday
7,13.1
19,35.01736607030269
2,1, 7, 1, 0, 3,30.00,31.00,Sunday
7,13.079999999999998
19,34.99632159447695
2,1, 7, 1, 0, 3,31.00,32.00,Sunday
7,13.06
19,34.975240246528415
2,1, 7, 1, 0, 3,32.00,33.00,Sunday
7,13.04
19,34.95411612727528
2,1, 7, 1, 0, 3,33.00,34.00,Sunday
7,13.02
19,34.9329437115771
2,1, 7, 1, 0, 3,34.00,35.00,Sunday
7,13.0
19,34.91171780844171
2,1, 7, 1, 0, 3,35.00,36.00,Sunday
7,12.98
19,34.89043352470516
2,1, 7, 1, 0, 3,36.00,37.00,Sunday
7,12.96
19,34.86908623188928
2,1, 7, 1, 0, 3,37.00,38.00,Sunday
7,12.94
19,34.847671535861615
2,1, 7, 1, 0, 3,38.00,39.00,Sunday
7,12.919999999999998
19,34.82618524895534
2,1, 7, 1, 0, 3,39.00,40.00,Sunday
7,12.899999999999999
19,34.804623364231794
2,1, 7, 1, 0, 3,40.00,41.00,Sunday
7,12.879999999999999
19,34.78298203158278
2,1, 7, 1, 0, 3,41.00,42.00,Sunday
7,12.86
19,34.76125753537769
2,1, 7, 1, 0, 3,42.00,43.00,Sunday
7,12.84
19,34.73944627336144
2,1, 7, 1, 0, 3,43.00,44.00,Sunday
7,12.82
19,34.71754473649978
2,1, 7, 1, 0, 3,44.00,45.00,Sunday
7,12.8
19,34.69554948945108
2,1, 7, 1, 0, 3,45.00,46.00,Sunday
7,12.78
19,34.67345715131215
2,1, 7, 1, 0, 3,46.00,47.00,Sunday
7,12.76
19,34.6512643762341
2,1, 7, 1, 0, 3,47.00,48.00,Sunday
7,12.739999999999998
19,34.628967833424554
2,1, 7, 1, 0, 3,48.00,49.00,Sunday
7,12.72
19,34.6065641859327
2,1, 7, 1, 0, 3,49.00,50.00,Sunday
7,12.700000000000001
19,34.584050067429416
2,1, 7, 1, 0, 3,50.00,51.00,Sunday
7,12.68
19,34.56124455228969
2,1, 7, 1, 0, 3,51.00,52.00,Sunday
7,12.66
19,34.53839578538619
2,1, 7, 1, 0, 3,52.00,53.00,Sunday
7,12.64
19,34.515330780464545
2,1, 7, 1, 0, 3,53.00,54.00,Sunday
7,12.62
19,34.49207544051219
2,1, 7, 1, 0, 3,54.00,55.00,Sunday
7,12.6
19,34.46867994839016
2,1, 7, 1, 0, 3,55.00,56.00,Sunday
7,12.579999999999998
19,34.445167702441964
2,1, 7, 1, 0, 3,56.00,57.00,Sunday
7,12.56
19,34.42154018441256
2,1, 7, 1, 0, 3,57.00,58.00,Sunday
7,12.540000000000001
19,34.39778946377875
2,1, 7, 1, 0, 3,58.00,59.00,Sunday
7,12.52
19,34.37390492234302
2,1, 7, 1, 0, 3,59.00,60.00,Sunday
7,12.5
19,34.34987358406512
2,1, 7, 1, 0, 3, 0.00,60.00,Sunday
8,23.447826729982555
9,23.422190741694898
10,23.3775363235253
11,23.505453341307
12,46.471056860334144
13,23.822082512766013
14,23.783316215746176
15,22.671502329867362
16,22.641400224712704
17,22.606206722052043
18,22.721611129837576
2,1, 7, 1, 0, 4, 0.00, 1.00,Sunday
7,12.486666666666666
19,34.32599456033516
2,1, 7, 1, 0, 4, 1.00, 2.00,Sunday
7,12.473333333333334
19,34.302287519215334
2,1, 7, 1, 0, 4, 2.00, 3.00,Sunday
7,12.46
19,34.27869950498479
2,1, 7, 1, 0, 4, 3.00, 4.00,Sunday
7,12.446666666666665
19,34.25518950516914
2,1, 7, 1, 0, 4, 4.00, 5.00,Sunday
7,12.433333333333332
19,34.23173825968236
2,1, 7, 1, 0, 4, 5.00, 6.00,Sunday
7,12.42
19,34.208338406124355
2,1, 7, 1, 0, 4, 6.00, 7.00,Sunday
7,12.406666666666666
19,34.18498627050851
2,1, 7, 1, 0, 4, 7.00, 8.00,Sunday
7,12.393333333333334
19,34.161678482886586
2,1, 7, 1, 0, 4, 8.00, 9.00,Sunday
7,12.379999999999999
19,34.13841136834934
2,1, 7, 1, 0, 4, 9.00,10.00,Sunday
7,12.366666666666667
19,34.11518119325747
2,1, 7, 1, 0, 4,10.00,11.00,Sunday
7,12.353333333333333
19,34.09198442720215
2,1, 7, 1, 0, 4,11.00,12.00,Sunday
7,12.34
19,34.06881785036109
2,1, 7, 1, 0, 4,12.00,13.00,Sunday
7,12.326666666666666
19,34.04567855843793
2,1, 7, 1, 0, 4,13.00,14.00,Sunday
7,12.313333333333333
19,34.022640052518014
2,1, 7, 1, 0, 4,14.00,15.00,Sunday
7,12.3
19,33.99978947675149
2,1, 7, 1, 0, 4,15.00,16.00,Sunday
7,12.286666666666667
19,33.977164631322935
2,1, 7, 1, 0, 4,16.00,17.00,Sunday
7,12.273333333333333
19,33.954761652185304
2,1, 7, 1, 0, 4,17.00,18.00,Sunday
7,12.26
19,33.93256024657453
2,1, 7, 1, 0, 4,18.00,19.00,Sunday
7,12.246666666666666
19,33.91053849014684
2,1, 7, 1, 0, 4,19.00,20.00,Sunday
7,12.233333333333334
19,33.888677439569
2,1, 7, 1, 0, 4,20.00,21.00,Sunday
7,12.219999999999999
19,33.86696119123267
2,1, 7, 1, 0, 4,21.00,22.00,Sunday
7,12.206666666666665
19,33.84537596560816
2,1, 7, 1, 0, 4,22.00,23.00,Sunday
7,12.193333333333335
19,33.82390944114624
2,1, 7, 1, 0, 4,23.00,24.00,Sunday
7,12.18
19,33.80255043983784
2,1, 7, 1, 0, 4,24.00,25.00,Sunday
7,12.166666666666666
19,33.78128879591836
2,1, 7, 1, 0, 4,25.00,26.00,Sunday
7,12.153333333333332
19,33.760115279771725
2,1, 7, 1, 0, 4,26.00,27.00,Sunday
7,12.14
19,33.73902152683358
2,1, 7, 1, 0, 4,27.00,28.00,Sunday
7,12.126666666666667
19,33.717999963425726
2,1, 7, 1, 0, 4,28.00,29.00,Sunday
7,12.113333333333332
19,33.697043733623104
2,1, 7, 1, 0, 4,29.00,30.00,Sunday
7,12.1
19,33.676146631007384
2,1, 7, 1, 0, 4,30.00,31.00,Sunday
7,12.086666666666666
19,33.65530303668271
2,1, 7, 1, 0, 4,31.00,32.00,Sunday
7,12.073333333333332
19,33.6345078634024
2,1, 7, 1, 0, 4,32.00,33.00,Sunday
7,12.059999999999999
19,33.61375650517019
2,1, 7, 1, 0, 4,33.00,34.00,Sunday
7,12.046666666666667
19,33.5930447916807
2,1, 7, 1, 0, 4,34.00,35.00,Sunday
7,12.033333333333333
19,33.57236894708064
2,1, 7, 1, 0, 4,35.00,36.00,Sunday
7,12.02
19,33.55172555262609
2,1, 7, 1, 0, 4,36.00,37.00,Sunday
7,12.006666666666666
19,33.531111512869934
2,1, 7, 1, 0, 4,37.00,38.00,Sunday
7,11.993333333333332
19,33.51052402505051
2,1, 7, 1, 0, 4,38.00,39.00,Sunday
7,11.98
19,33.48996055138037
2,1, 7, 1, 0, 4,39.00,40.00,Sunday
7,11.966666666666665
19,33.469418793961935
2,1, 7, 1, 0, 4,40.00,41.00,Sunday
7,11.953333333333333
19,33.44889667208086
2,1, 7, 1, 0, 4,41.00,42.00,Sunday
7,11.94
19,33.42839230165115
2,1, 7, 1, 0, 4,42.00,43.00,Sunday
7,11.926666666666666
19,33.40790397660839
2,1, 7, 1, 0, 4,43.00,44.00,Sunday
7,11.913333333333332
19,33.38743015206584
2,1, 7, 1, 0, 4,44.00,45.00,Sunday
7,11.899999999999999
19,33.36696942906666
2,1, 7, 1, 0, 4,45.00,46.00,Sunday
7,11.886666666666667
19,33.34652054078032
2,1, 7, 1, 0, 4,46.00,47.00,Sunday
7,11.873333333333333
19,33.32608234000643
2,1, 7, 1, 0, 4,47.00,48.00,Sunday
7,11.86
19,33.305653787862234
2,1, 7, 1, 0, 4,48.00,49.00,Sunday
7,11.846666666666668
19,33.28523394354104
2,1, 7, 1, 0, 4,49.00,50.00,Sunday
7,11.833333333333332
19,33.26482195504037
2,1, 7, 1, 0, 4,50.00,51.00,Sunday
7,11.819999999999999
19,33.2444170507681
2,1, 7, 1, 0, 4,51.00,52.00,Sunday
7,11.806666666666667
19,33.22401853194279
2,1, 7, 1, 0, 4,52.00,53.00,Sunday
7,11.793333333333333
19,33.20362576571323
2,1, 7, 1, 0, 4,53.00,54.00,Sunday
7,11.78
19,33.183238178929365
2,1, 7, 1, 0, 4,54.00,55.00,Sunday
7,11.766666666666667
19,33.1628552525024
2,1, 7, 1, 0, 4,55.00,56.00,Sunday
7,11.753333333333334
19,33.14247651629807
2,1, 7, 1, 0, 4,56.00,57.00,Sunday
7,11.739999999999998
19,33.12210154451334
2,1, 7, 1, 0, 4,57.00,58.00,Sunday
7,11.726666666666665
19,33.10172995149039
2,1, 7, 1, 0, 4,58.00,59.00,Sunday
7,11.713333333333333
19,33.081361387926066
2,1, 7, 1, 0, 4,59.00,60.00,Sunday
7,11.7
19,33.06099553744004
2,1, 7, 1, 0, 4, 0.00,60.00,Sunday
8,22.438282135348157
9,22.437975794436866
10,22.445854517755112
11,22.446060240922748
12,44.93705914725767
13,22.725075662516886
14,22.679157295624698
15,21.655497315667564
16,21.655364591696078
17,21.664142090386175
18,21.664140523579825
2,1, 7, 1, 0, 5, 0.00, 1.00,Sunday
7,11.693333333333332
19,33.040703192099386
2,1, 7, 1, 0, 5, 1.00, 2.00,Sunday
7,11.686666666666666
19,33.02054938061539
2,1, 7, 1, 0, 5, 2.00, 3.00,Sunday
7,11.679999999999998
19,33.00055537563455
2,1, 7, 1, 0, 5, 3.00, 4.00,Sunday
7,11.673333333333334
19,32.98071481036818
2,1, 7, 1, 0, 5, 4.00, 5.00,Sunday
7,11.666666666666666
19,32.96101248259743
2,1, 7, 1, 0, 5, 5.00, 6.00,Sunday
7,11.66
19,32.94143337166948
2,1, 7, 1, 0, 5, 6.00, 7.00,Sunday
7,11.653333333333332
19,32.921964816756336
2,1, 7, 1, 0, 5, 7.00, 8.00,Sunday
7,11.646666666666668
19,32.902596160660714
2,1, 7, 1, 0, 5, 8.00, 9.00,Sunday
7,11.639999999999999
19,32.883318068314104
2,1, 7, 1, 0, 5, 9.00,10.00,Sunday
7,11.633333333333333
19,32.86412211950293
2,1, 7, 1, 0, 5,10.00,11.00,Sunday
7,11.626666666666667
19,32.84500064044469
2,1, 7, 1, 0, 5,11.00,12.00,Sunday
7,11.62
19,32.82594663790549
2,1, 7, 1, 0, 5,12.00,13.00,Sunday
7,11.613333333333333
19,32.80695375563707
2,1, 7, 1, 0, 5,13.00,14.00,Sunday
7,11.606666666666666
19,32.7880162279308
2,1, 7, 1, 0, 5,14.00,15.00,Sunday
7,11.599999999999998
19,32.7691288295095
2,1, 7, 1, 0, 5,15.00,16.00,Sunday
7,11.593333333333334
19,32.75028682602798
2,1, 7, 1, 0, 5,16.00,17.00,Sunday
7,11.586666666666666
19,32.73148592795845
2,1, 7, 1, 0, 5,17.00,18.00,Sunday
7,11.58
19,32.7127222486805
2,1, 7, 1, 0, 5,18.00,19.00,Sunday
7,11.573333333333334
19,32.69399226660936
2,1, 7, 1, 0, 5,19.00,20.00,Sunday
7,11.566666666666666
19,32.67529279093775
2,1, 7, 1, 0, 5,20.00,21.00,Sunday
7,11.559999999999999
19,32.65662093059378
2,1, 7, 1, 0, 5,21.00,22.00,Sunday
7,11.553333333333333
19,32.637974066092916
2,1, 7, 1, 0, 5,22.00,23.00,Sunday
7,11.546666666666667
19,32.619349824015444
2,1, 7, 1, 0, 5,23.00,24.00,Sunday
7,11.54
19,32.60074605387253
2,1, 7, 1, 0, 5,24.00,25.00,Sunday
7,11.533333333333331
19,32.58216080714301
2,1, 7, 1, 0, 5,25.00,26.00,Sunday
7,11.526666666666667
19,32.56359231828058
2,1, 7, 1, 0, 5,26.00,27.00,Sunday
7,11.520000000000001
19,32.545038987507546
2,1, 7, 1, 0, 5,27.00,28.00,Sunday
7,11.513333333333332
19,32.526499365228325
2,1, 7, 1, 0, 5,28.00,29.00,Sunday
7,11.506666666666666
19,32.507972137909135
2,1, 7, 1, 0, 5,29.00,30.00,Sunday
7,11.5
19,32.4894561152872
2,1, 7, 1, 0, 5,30.00,31.00,Sunday
7,11.493333333333334
19,32.47095021878381
2,1, 7, 1, 0, 5,31.00,32.00,Sunday
7,11.486666666666668
19,32.45245347100815
2,1, 7, 1, 0, 5,32.00,33.00,Sunday
7,11.48
19,32.433964986248746
2,1, 7, 1, 0, 5,33.00,34.00,Sunday
7,11.473333333333333
19,32.41548396185939
2,1, 7, 1, 0, 5,34.00,35.00,Sunday
7,11.466666666666667
19,32.397009670455816
2,1, 7, 1, 0, 5,35.00,36.00,Sunday
7,11.46
19,32.3785971418537
2,1, 7, 1, 0, 5,36.00,37.00,Sunday
7,11.453333333333333
19,32.36031120022272
2,1, 7, 1, 0, 5,37.00,38.00,Sunday
7,11.446666666666667
19,32.342180553425926
2,1, 7, 1, 0, 5,38.00,39.00,Sunday
7,11.440000000000001
19,32.32420344002047
2,1, 7, 1, 0, 5,39.00,40.00,Sunday
7,11.433333333333334
19,32.306366021217784
2,1, 7, 1, 0, 5,40.00,41.00,Sunday
7,11.426666666666668
19,32.2886531639411
2,1, 7, 1, 0, 5,41.00,42.00,Sunday
7,11.42
19,32.27105180966788
2,1, 7, 1, 0, 5,42.00,43.00,Sunday
7,11.413333333333334
19,32.25355102844249
2,1, 7, 1, 0, 5,43.00,44.00,Sunday
7,11.406666666666668
19,32.236141362556886
2,1, 7, 1, 0, 5,44.00,45.00,Sunday
7,11.400000000000002
19,32.21881435033936
2,1, 7, 1, 0, 5,45.00,46.00,Sunday
7,11.393333333333333
19,32.20156230459372
2,1, 7, 1, 0, 5,46.00,47.00,Sunday
7,11.386666666666667
19,32.184378223398525
2,1, 7, 1, 0, 5,47.00,48.00,Sunday
7,11.38
19,32.16725574038761
2,1, 7, 1, 0, 5,48.00,49.00,Sunday
7,11.373333333333333
19,32.150189078091316
2,1, 7, 1, 0, 5,49.00,50.00,Sunday
7,11.366666666666667
19,32.1331729985165
2,1, 7, 1, 0, 5,50.00,51.00,Sunday
7,11.360000000000001
19,32.11620275398932
2,1, 7, 1, 0, 5,51.00,52.00,Sunday
7,11.353333333333335
19,32.09927404110781
2,1, 7, 1, 0, 5,52.00,53.00,Sunday
7,11.346666666666668
19,32.0823829588501
2,1, 7, 1, 0, 5,53.00,54.00,Sunday
7,11.340000000000002
19,32.06552597077279
2,1, 7, 1, 0, 5,54.00,55.00,Sunday
7,11.333333333333334
19,32.048699870876085
2,1, 7, 1, 0, 5,55.00,56.00,Sunday
7,11.326666666666666
19,32.03190175270826
2,1, 7, 1, 0, 5,56.00,57.00,Sunday
7,11.32
19,32.01512898136318
2,1, 7, 1, 0, 5,57.00,58.00,Sunday
7,11.313333333333334
19,31.998379168089777
2,1, 7, 1, 0, 5,58.00,59.00,Sunday
7,11.306666666666667
19,31.98165014727147
2,1, 7, 1, 0, 5,59.00,60.00,Sunday
7,11.3
19,31.970088628003737
2,1, 7, 1, 0, 5, 0.00,60.00,Sunday
8,21.51963809340583
9,21.519540092891422
10,21.527233603510144
11,21.527233603510144
12,43.57082974667332
13,21.762680994341714
14,21.728408505643966
15,20.767358682129846
16,20.767227522267067
17,20.77579320241799
18,20.775793202417596
2,1, 7, 1, 0, 6, 0.00, 1.00,Sunday
7,11.295
19,31.965396248386533
2,1, 7, 1, 0, 6, 1.00, 2.00,Sunday
7,11.290000000000001
19,31.963937510980674
2,1, 7, 1, 0, 6, 2.00, 3.00,Sunday
7,11.285
19,31.962850176486768
2,1, 7, 1, 0, 6, 3.00, 4.00,Sunday
7,11.28
19,31.96099675698085
2,1, 7, 1, 0, 6, 4.00, 5.00,Sunday
7,11.275
19,31.958223523331736
2,1, 7, 1, 0, 6, 5.00, 6.00,Sunday
7,11.270000000000001
19,31.954679127843324
2,1, 7, 1, 0, 6, 6.00, 7.00,Sunday
7,11.265
19,31.950516828723384
2,1, 7, 1, 0, 6, 7.00, 8.00,Sunday
7,11.260000000000002
19,31.94583315215074
2,1, 7, 1, 0, 6, 8.00, 9.00,Sunday
7,11.255
19,31.940685310402596
2,1, 7, 1, 0, 6, 9.00,10.00,Sunday
7,11.250000000000002
19,31.93511413354349
2,1, 7, 1, 0, 6,10.00,11.00,Sunday
7,11.245000000000001
19,31.929155545256553
2,1, 7, 1, 0, 6,11.00,12.00,Sunday
7,11.240000000000002
19,31.92284365705465
2,1, 7, 1, 0, 6,12.00,13.00,Sunday
7,11.235
19,31.91621068362207
2,1, 7, 1, 0, 6,13.00,14.00,Sunday
7,11.23
19,31.909286423587307
2,1, 7, 1, 0, 6,14.00,15.00,Sunday
7,11.225000000000001
19,31.902098067402274
2,1, 7, 1, 0, 6,15.00,16.00,Sunday
7,11.22
19,31.894670293353265
2,1, 7, 1, 0, 6,16.00,17.00,Sunday
7,11.215000000000002
19,31.887025479033554
2,1, 7, 1, 0, 6,17.00,18.00,Sunday
7,11.21
19,31.87918392395546
2,1, 7, 1, 0, 6,18.00,19.00,Sunday
7,11.205000000000002
19,31.871164049158644
2,1, 7, 1, 0, 6,19.00,20.00,Sunday
7,11.200000000000001
19,31.86298257198529
2,1, 7, 1, 0, 6,20.00,21.00,Sunday
7,11.195
19,31.85465466173021
2,1, 7, 1, 0, 6,21.00,22.00,Sunday
7,11.190000000000001
19,31.84619408067054
2,1, 7, 1, 0, 6,22.00,23.00,Sunday
7,11.185
19,31.837615077458732
2,1, 7, 1, 0, 6,23.00,24.00,Sunday
7,11.18
19,31.82893212052634
2,1, 7, 1, 0, 6,24.00,25.00,Sunday
7,11.175
19,31.820157616965787
2,1, 7, 1, 0, 6,25.00,26.00,Sunday
7,11.17
19,31.81130132399642
2,1, 7, 1, 0, 6,26.00,27.00,Sunday
7,11.165000000000001
19,31.802371151883513
2,1, 7, 1, 0, 6,27.00,28.00,Sunday
7,11.16
19,31.793373948802348
2,1, 7, 1, 0, 6,28.00,29.00,Sunday
7,11.155
19,31.78431589101466
2,1, 7, 1, 0, 6,29.00,30.00,Sunday
7,11.15
19,31.775202617149365
2,1, 7, 1, 0, 6,30.00,31.00,Sunday
7,11.145
19,31.76656723999863
2,1, 7, 1, 0, 6,31.00,32.00,Sunday
7,11.14
19,31.759026636078378
2,1, 7, 1, 0, 6,32.00,33.00,Sunday
7,11.135000000000002
19,31.752967468495836
2,1, 7, 1, 0, 6,33.00,34.00,Sunday
7,11.13
19,31.74842053913648
2,1, 7, 1, 0, 6,34.00,35.00,Sunday
7,11.125
19,31.74522653859602
2,1, 7, 1, 0, 6,35.00,36.00,Sunday
7,11.120000000000001
19,31.74321709163651
2,1, 7, 1, 0, 6,36.00,37.00,Sunday
7,11.115
19,31.74226790874479
2,1, 7, 1, 0, 6,37.00,38.00,Sunday
7,11.11
19,31.74228936856225
2,1, 7, 1, 0, 6,38.00,39.00,Sunday
7,11.105
19,31.743209855260552
2,1, 7, 1, 0, 6,39.00,40.00,Sunday
7,11.100000000000001
19,31.74496648148902
2,1, 7, 1, 0, 6,40.00,41.00,Sunday
7,11.095
19,31.74779161586424
2,1, 7, 1, 0, 6,41.00,42.00,Sunday
7,11.09
19,31.751663488286653
2,1, 7, 1, 0, 6,42.00,43.00,Sunday
7,11.085
19,31.756357290508042
2,1, 7, 1, 0, 6,43.00,44.00,Sunday
7,11.08
19,31.761685383790454
2,1, 7, 1, 0, 6,44.00,45.00,Sunday
7,11.075
19,31.767552391730007
2,1, 7, 1, 0, 6,45.00,46.00,Sunday
7,11.07
19,31.773917713743337
2,1, 7, 1, 0, 6,46.00,47.00,Sunday
7,11.065000000000001
19,31.780760233999565
2,1, 7, 1, 0, 6,47.00,48.00,Sunday
7,11.06
19,31.788062528397585
2,1, 7, 1, 0, 6,48.00,49.00,Sunday
7,11.055
19,31.79580726266226
2,1, 7, 1, 0, 6,49.00,50.00,Sunday
7,11.05
19,31.8039777320399
2,1, 7, 1, 0, 6,50.00,51.00,Sunday
7,11.045
19,31.81255875350557
2,1, 7, 1, 0, 6,51.00,52.00,Sunday
7,11.04
19,31.821537014500997
2,1, 7, 1, 0, 6,52.00,53.00,Sunday
7,11.035
19,31.830901019690124
2,1, 7, 1, 0, 6,53.00,54.00,Sunday
7,11.030000000000001
19,31.84064089569814
2,1, 7, 1, 0, 6,54.00,55.00,Sunday
7,11.024999999999999
19,31.850748190358885
2,1, 7, 1, 0, 6,55.00,56.00,Sunday
7,11.020000000000001
19,31.86121570818131
2,1, 7, 1, 0, 6,56.00,57.00,Sunday
7,11.015
19,31.872037373216955
2,1, 7, 1, 0, 6,57.00,58.00,Sunday
7,11.01
19,31.883441079655924
2,1, 7, 1, 0, 6,58.00,59.00,Sunday
7,11.005
19,31.8956956212509
2,1, 7, 1, 0, 6,59.00,60.00,Sunday
7,11.0
19,31.90891952162954
2,1, 7, 1, 0, 6, 0.00,60.00,Sunday
8,21.248854850200793
9,21.165427263645338
10,21.34555084898305
11,21.17302810008159
12,42.98328766300622
13,21.40673227174519
14,21.2941621307827
15,20.400098440989517
16,20.363699328967797
17,20.44077080167046
18,20.37217209460557
2,1, 7, 1, 0, 7, 0.00, 1.00,Sunday
7,11.053333333333333
19,31.924214407684584
2,1, 7, 1, 0, 7, 1.00, 2.00,Sunday
7,11.106666666666666
19,31.942077966017816
2,1, 7, 1, 0, 7, 2.00, 3.00,Sunday
7,11.16
19,31.96251186547824
2,1, 7, 1, 0, 7, 3.00, 4.00,Sunday
7,11.213333333333335
19,31.985320498954643
2,1, 7, 1, 0, 7, 4.00, 5.00,Sunday
7,11.266666666666666
19,32.010283741068754
2,1, 7, 1, 0, 7, 5.00, 6.00,Sunday
7,11.32
19,32.037211208049825
2,1, 7, 1, 0, 7, 6.00, 7.00,Sunday
7,11.373333333333333
19,32.065943945914526
2,1, 7, 1, 0, 7, 7.00, 8.00,Sunday
7,11.426666666666666
19,32.0963446981988
2,1, 7, 1, 0, 7, 8.00, 9.00,Sunday
7,11.48
19,32.12829078990698
2,1, 7, 1, 0, 7, 9.00,10.00,Sunday
7,11.533333333333335
19,32.16167086561665
2,1, 7, 1, 0, 7,10.00,11.00,Sunday
7,11.586666666666666
19,32.19675554051744
2,1, 7, 1, 0, 7,11.00,12.00,Sunday
7,11.64
19,32.233514287726884
2,1, 7, 1, 0, 7,12.00,13.00,Sunday
7,11.693333333333333
19,32.271590843678325
2,1, 7, 1, 0, 7,13.00,14.00,Sunday
7,11.746666666666666
19,32.31072611230653
2,1, 7, 1, 0, 7,14.00,15.00,Sunday
7,11.8
19,32.350788696391255
2,1, 7, 1, 0, 7,15.00,16.00,Sunday
7,11.853333333333333
19,32.39171470560772
2,1, 7, 1, 0, 7,16.00,17.00,Sunday
7,11.906666666666666
19,32.433462450763294
2,1, 7, 1, 0, 7,17.00,18.00,Sunday
7,11.959999999999999
19,32.475994336876404
2,1, 7, 1, 0, 7,18.00,19.00,Sunday
7,12.013333333333332
19,32.51927351371202