Program Version,EnergyPlus, Version 25.1.0-1c11a3d85f, YMD=2026.04.10 14:05
1,5,Environment Title[],Latitude[deg],Longitude[deg],Time Zone[],Elevation[m]
2,8,Day of Simulation[],Month[],Day of Month[],DST Indicator[1=yes 0=no],Hour[],StartMinute[],EndMinute[],DayType
3,5,Cumulative Day of Simulation[],Month[],Day of Month[],DST Indicator[1=yes 0=no],DayType  ! When Daily Report Variables Requested
4,2,Cumulative Days of Simulation[],Month[]  ! When Monthly Report Variables Requested
5,1,Cumulative Days of Simulation[] ! When Run Period Report Variables Requested
6,1,Calendar Year of Simulation[] ! When Annual Report Variables Requested
7,1,Environment,Site Outdoor Air Drybulb Temperature [C] !TimeStep
8,1,WALL_N,Surface Inside Face Temperature [C] !Hourly
9,1,WALL_S,Surface Inside Face Temperature [C] !Hourly
10,1,WALL_E,Surface Inside Face Temperature [C] !Hourly
11,1,WALL_W,Surface Inside Face Temperature [C] !Hourly
12,1,FLOOR,Surface Inside Face Temperature [C] !Hourly
13,1,ROOF,Surface Inside Face Temperature [C] !Hourly
14,1,ROOF_GLASS,Surface Inside Face Temperature [C] !Hourly
15,1,WALL_N_GLASS,Surface Inside Face Temperature [C] !Hourly
16,1,WALL_S_GLASS,Surface Inside Face Temperature [C] !Hourly
17,1,WALL_E_GLASS,Surface Inside Face Temperature [C] !Hourly
18,1,WALL_W_GLASS,Surface Inside Face Temperature [C] !Hourly
19,1,GREENHOUSE,Zone Mean Air Temperature [C] !TimeStep
End of Data Dictionary
1,RUN PERIOD 1,  45.64,   5.88,   1.00, 235.00
2,1, 7, 1, 0, 1, 0.00, 1.00,Sunday
7,20.231666666666666
19,28.732472596977566
2,1, 7, 1, 0, 1, 1.00, 2.00,Sunday
7,20.163333333333334
19,28.713099487222816
2,1, 7, 1, 0, 1, 2.00, 3.00,Sunday
7,20.095
19,28.689747701852617
2,1, 7, 1, 0, 1, 3.00, 4.00,Sunday
7,20.026666666666667
19,28.662710486707333
2,1, 7, 1, 0, 1, 4.00, 5.00,Sunday
7,19.958333333333336
19,28.632536972984912
2,1, 7, 1, 0, 1, 5.00, 6.00,Sunday
7,19.89
19,28.599760063624103
2,1, 7, 1, 0, 1, 6.00, 7.00,Sunday
7,19.82166666666667
19,28.564816485904895
2,1, 7, 1, 0, 1, 7.00, 8.00,Sunday
7,19.753333333333334
19,28.528052947334565
2,1, 7, 1, 0, 1, 8.00, 9.00,Sunday
7,19.685
19,28.48975026790372
2,1, 7, 1, 0, 1, 9.00,10.00,Sunday
7,19.616666666666667
19,28.450141820879193
2,1, 7, 1, 0, 1,10.00,11.00,Sunday
7,19.548333333333332
19,28.409425094160333
2,1, 7, 1, 0, 1,11.00,12.00,Sunday
7,19.480000000000004
19,28.36776763764668
2,1, 7, 1, 0, 1,12.00,13.00,Sunday
7,19.41166666666667
19,28.547818850913075
2,1, 7, 1, 0, 1,13.00,14.00,Sunday
7,19.343333333333334
19,28.87313138745465
2,1, 7, 1, 0, 1,14.00,15.00,Sunday
7,19.275000000000002
19,29.22817365709063
2,1, 7, 1, 0, 1,15.00,16.00,Sunday
7,19.206666666666667
19,29.551928779393332
2,1, 7, 1, 0, 1,16.00,17.00,Sunday
7,19.138333333333335
19,29.828669308466456
2,1, 7, 1, 0, 1,17.00,18.00,Sunday
7,19.07
19,30.061771238773158
2,1, 7, 1, 0, 1,18.00,19.00,Sunday
7,19.00166666666667
19,30.2586290313185
2,1, 7, 1, 0, 1,19.00,20.00,Sunday
7,18.933333333333334
19,30.4251873450574
2,1, 7, 1, 0, 1,20.00,21.00,Sunday
7,18.865
19,30.565527646483307
2,1, 7, 1, 0, 1,21.00,22.00,Sunday
7,18.796666666666667
19,30.682439630485412
2,1, 7, 1, 0, 1,22.00,23.00,Sunday
7,18.728333333333335
19,30.7784943245938
2,1, 7, 1, 0, 1,23.00,24.00,Sunday
7,18.66
19,30.85609201907774
2,1, 7, 1, 0, 1,24.00,25.00,Sunday
7,18.591666666666665
19,30.91741045163791
2,1, 7, 1, 0, 1,25.00,26.00,Sunday
7,18.523333333333333
19,30.964389932763122
2,1, 7, 1, 0, 1,26.00,27.00,Sunday
7,18.455000000000002
19,30.998745440075627
2,1, 7, 1, 0, 1,27.00,28.00,Sunday
7,18.386666666666667
19,31.02198883389792
2,1, 7, 1, 0, 1,28.00,29.00,Sunday
7,18.318333333333335
19,31.03545192665864
2,1, 7, 1, 0, 1,29.00,30.00,Sunday
7,18.25
19,31.040629659299274
2,1, 7, 1, 0, 1,30.00,31.00,Sunday
7,18.181666666666665
19,31.038937074188173
2,1, 7, 1, 0, 1,31.00,32.00,Sunday
7,18.113333333333333
19,31.031416409697474
2,1, 7, 1, 0, 1,32.00,33.00,Sunday
7,18.045
19,31.018827348162556
2,1, 7, 1, 0, 1,33.00,34.00,Sunday
7,17.976666666666667
19,31.001773874811043
2,1, 7, 1, 0, 1,34.00,35.00,Sunday
7,17.90833333333333
19,30.98077534048147
2,1, 7, 1, 0, 1,35.00,36.00,Sunday
7,17.84
19,30.95629266528969
2,1, 7, 1, 0, 1,36.00,37.00,Sunday
7,17.77166666666667
19,30.92873563224575
2,1, 7, 1, 0, 1,37.00,38.00,Sunday
7,17.703333333333333
19,30.898466122994794
2,1, 7, 1, 0, 1,38.00,39.00,Sunday
7,17.634999999999998
19,30.8658019553558
2,1, 7, 1, 0, 1,39.00,40.00,Sunday
7,17.566666666666666
19,30.83102151145344
2,1, 7, 1, 0, 1,40.00,41.00,Sunday
7,17.498333333333335
19,30.794368420432853
2,1, 7, 1, 0, 1,41.00,42.00,Sunday
7,17.43
19,30.756055823935085
2,1, 7, 1, 0, 1,42.00,43.00,Sunday
7,17.361666666666665
19,30.7162700985603
2,1, 7, 1, 0, 1,43.00,44.00,Sunday
7,17.293333333333333
19,30.67517407786061
2,1, 7, 1, 0, 1,44.00,45.00,Sunday
7,17.224999999999998
19,30.63290985409878
2,1, 7, 1, 0, 1,45.00,46.00,Sunday
7,17.156666666666666
19,30.58960122813853
2,1, 7, 1, 0, 1,46.00,47.00,Sunday
7,17.08833333333333
19,30.54535585772627
2,1, 7, 1, 0, 1,47.00,48.00,Sunday
7,17.02
19,30.500267142331264
2,1, 7, 1, 0, 1,48.00,49.00,Sunday
7,16.951666666666664
19,30.454415876075807
2,1, 7, 1, 0, 1,49.00,50.00,Sunday
7,16.883333333333333
19,30.407871696315375
2,1, 7, 1, 0, 1,50.00,51.00,Sunday
7,16.815
19,30.360694352362316
2,1, 7, 1, 0, 1,51.00,52.00,Sunday
7,16.746666666666666
19,30.31293481607624
2,1, 7, 1, 0, 1,52.00,53.00,Sunday
7,16.678333333333335
19,30.26463625346427
2,1, 7, 1, 0, 1,53.00,54.00,Sunday
7,16.61
19,30.21583487408349
2,1, 7, 1, 0, 1,54.00,55.00,Sunday
7,16.541666666666664
19,30.166560672926842
2,1, 7, 1, 0, 1,55.00,56.00,Sunday
7,16.473333333333333
19,30.11683807758707
2,1, 7, 1, 0, 1,56.00,57.00,Sunday
7,16.405
19,30.06668651178173
2,1, 7, 1, 0, 1,57.00,58.00,Sunday
7,16.336666666666666
19,30.016120884738484
2,1, 7, 1, 0, 1,58.00,59.00,Sunday
7,16.26833333333333
19,29.9651520144213
2,1, 7, 1, 0, 1,59.00,60.00,Sunday
7,16.2
19,29.913786991049875
2,1, 7, 1, 0, 1, 0.00,60.00,Sunday
8,21.70254193917039
9,21.77606816679161
10,21.721591426061156
11,21.794828374626366
12,40.50939700404036
13,21.263289768967727
14,21.35927441729835
15,21.554878460999635
16,21.62502661102552
17,21.576076037928456
18,21.646613062584056
2,1, 7, 1, 0, 2, 0.00, 1.00,Sunday
7,16.19333333333333
19,29.86427993642188
2,1, 7, 1, 0, 2, 1.00, 2.00,Sunday
7,16.186666666666667
19,29.818056517453222
2,1, 7, 1, 0, 2, 2.00, 3.00,Sunday
7,16.18
19,29.775412325060206
2,1, 7, 1, 0, 2, 3.00, 4.00,Sunday
7,16.173333333333332
19,29.736068336130746
2,1, 7, 1, 0, 2, 4.00, 5.00,Sunday
7,16.166666666666664
19,29.699787476634818
2,1, 7, 1, 0, 2, 5.00, 6.00,Sunday
7,16.16
19,29.66610476689058
2,1, 7, 1, 0, 2, 6.00, 7.00,Sunday
7,16.153333333333332
19,29.634610245572272
2,1, 7, 1, 0, 2, 7.00, 8.00,Sunday
7,16.146666666666665
19,29.605003509482962
2,1, 7, 1, 0, 2, 8.00, 9.00,Sunday
7,16.14
19,29.577056512541684
2,1, 7, 1, 0, 2, 9.00,10.00,Sunday
7,16.133333333333333
19,29.5505787278778
2,1, 7, 1, 0, 2,10.00,11.00,Sunday
7,16.126666666666665
19,29.525401225048828
2,1, 7, 1, 0, 2,11.00,12.00,Sunday
7,16.12
19,29.50137208332641
2,1, 7, 1, 0, 2,12.00,13.00,Sunday
7,16.113333333333333
19,29.478355432457573
2,1, 7, 1, 0, 2,13.00,14.00,Sunday
7,16.106666666666666
19,29.456230707162423
2,1, 7, 1, 0, 2,14.00,15.00,Sunday
7,16.099999999999998
19,29.43489142401172
2,1, 7, 1, 0, 2,15.00,16.00,Sunday
7,16.093333333333334
19,29.41424369974602
2,1, 7, 1, 0, 2,16.00,17.00,Sunday
7,16.086666666666666
19,29.39420478324088
2,1, 7, 1, 0, 2,17.00,18.00,Sunday
7,16.08
19,29.37470172813878
2,1, 7, 1, 0, 2,18.00,19.00,Sunday
7,16.073333333333334
19,29.355670228198967
2,1, 7, 1, 0, 2,19.00,20.00,Sunday
7,16.066666666666666
19,29.33705359775182
2,1, 7, 1, 0, 2,20.00,21.00,Sunday
7,16.06
19,29.318801874692905
2,1, 7, 1, 0, 2,21.00,22.00,Sunday
7,16.053333333333335
19,29.300871028391946
2,1, 7, 1, 0, 2,22.00,23.00,Sunday
7,16.046666666666667
19,29.28322225955811
2,1, 7, 1, 0, 2,23.00,24.00,Sunday
7,16.04
19,29.265821381698178
2,1, 7, 1, 0, 2,24.00,25.00,Sunday
7,16.03333333333333
19,29.248638275111524
2,1, 7, 1, 0, 2,25.00,26.00,Sunday
7,16.026666666666667
19,29.2316464052181
2,1, 7, 1, 0, 2,26.00,27.00,Sunday
7,16.02
19,29.21482239779279
2,1, 7, 1, 0, 2,27.00,28.00,Sunday
7,16.013333333333332
19,29.198145664449264
2,1, 7, 1, 0, 2,28.00,29.00,Sunday
7,16.006666666666668
19,29.181598072458684
2,1, 7, 1, 0, 2,29.00,30.00,Sunday
7,16.0
19,29.16516365367048
2,1, 7, 1, 0, 2,30.00,31.00,Sunday
7,15.993333333333332
19,29.148828347913998
2,1, 7, 1, 0, 2,31.00,32.00,Sunday
7,15.986666666666668
19,29.13257977680341
2,1, 7, 1, 0, 2,32.00,33.00,Sunday
7,15.98
19,29.11640704434714
2,1, 7, 1, 0, 2,33.00,34.00,Sunday
7,15.973333333333333
19,29.10030056118589
2,1, 7, 1, 0, 2,34.00,35.00,Sunday
7,15.966666666666665
19,29.084251889660845
2,1, 7, 1, 0, 2,35.00,36.00,Sunday
7,15.96
19,29.06825360724209
2,1, 7, 1, 0, 2,36.00,37.00,Sunday
7,15.953333333333333
19,29.052299186141802
2,1, 7, 1, 0, 2,37.00,38.00,Sunday
7,15.946666666666665
19,29.03638288719269
2,1, 7, 1, 0, 2,38.00,39.00,Sunday
7,15.940000000000001
19,29.020499666300466
2,1, 7, 1, 0, 2,39.00,40.00,Sunday
7,15.933333333333334
19,29.004645091980244
2,1, 7, 1, 0, 2,40.00,41.00,Sunday
7,15.926666666666666
19,28.9888152726627
2,1, 7, 1, 0, 2,41.00,42.00,Sunday
7,15.920000000000002
19,28.973006792611862
2,1, 7, 1, 0, 2,42.00,43.00,Sunday
7,15.913333333333334
19,28.957216655433925
2,1, 7, 1, 0, 2,43.00,44.00,Sunday
7,15.906666666666666
19,28.941442234277233
2,1, 7, 1, 0, 2,44.00,45.00,Sunday
7,15.900000000000002
19,28.92568122793021
2,1, 7, 1, 0, 2,45.00,46.00,Sunday
7,15.893333333333334
19,28.909931622119498
2,1, 7, 1, 0, 2,46.00,47.00,Sunday
7,15.886666666666667
19,28.894191655391154
2,1, 7, 1, 0, 2,47.00,48.00,Sunday
7,15.879999999999999
19,28.87845978903212
2,1, 7, 1, 0, 2,48.00,49.00,Sunday
7,15.873333333333335
19,28.862734680553487
2,1, 7, 1, 0, 2,49.00,50.00,Sunday
7,15.866666666666667
19,28.847015160313475
2,1, 7, 1, 0, 2,50.00,51.00,Sunday
7,15.86
19,28.831300210908594
2,1, 7, 1, 0, 2,51.00,52.00,Sunday
7,15.853333333333335
19,28.815574052576117
2,1, 7, 1, 0, 2,52.00,53.00,Sunday
7,15.846666666666668
19,28.79981913385423
2,1, 7, 1, 0, 2,53.00,54.00,Sunday
7,15.84
19,28.784027932719837
2,1, 7, 1, 0, 2,54.00,55.00,Sunday
7,15.833333333333336
19,28.768201073332133
2,1, 7, 1, 0, 2,55.00,56.00,Sunday
7,15.826666666666668
19,28.752342338087626
2,1, 7, 1, 0, 2,56.00,57.00,Sunday
7,15.82
19,28.73645576264721
2,1, 7, 1, 0, 2,57.00,58.00,Sunday
7,15.813333333333333
19,28.720544744618454
2,1, 7, 1, 0, 2,58.00,59.00,Sunday
7,15.806666666666668
19,28.70461205268729
2,1, 7, 1, 0, 2,59.00,60.00,Sunday
7,15.8
19,28.688660023774094
2,1, 7, 1, 0, 2, 0.00,60.00,Sunday
8,21.18704834704881
9,21.29710018796788
10,21.212193740732964
11,21.322256453071937
12,39.2802169590562
13,20.263188826127422
14,20.234791786135013
15,20.77011315643242
16,20.870947390157124
17,20.797318505970598
18,20.898617872980534
2,1, 7, 1, 0, 3, 0.00, 1.00,Sunday
7,15.8
19,28.67272745308449
2,1, 7, 1, 0, 3, 1.00, 2.00,Sunday
7,15.8
19,28.656851323898707
2,1, 7, 1, 0, 3, 2.00, 3.00,Sunday
7,15.8
19,28.641045804823317
2,1, 7, 1, 0, 3, 3.00, 4.00,Sunday
7,15.8
19,28.625309174892042
2,1, 7, 1, 0, 3, 4.00, 5.00,Sunday
7,15.8
19,28.609634042422712
2,1, 7, 1, 0, 3, 5.00, 6.00,Sunday
7,15.8
19,28.594012715261453
2,1, 7, 1, 0, 3, 6.00, 7.00,Sunday
7,15.8
19,28.57843870738107
2,1, 7, 1, 0, 3, 7.00, 8.00,Sunday
7,15.800000000000002
19,28.562906664746233
2,1, 7, 1, 0, 3, 8.00, 9.00,Sunday
7,15.8
19,28.547412011417215
2,1, 7, 1, 0, 3, 9.00,10.00,Sunday
7,15.8
19,28.531950716606385
2,1, 7, 1, 0, 3,10.00,11.00,Sunday
7,15.8
19,28.516519191391097
2,1, 7, 1, 0, 3,11.00,12.00,Sunday
7,15.8
19,28.50111424476867
2,1, 7, 1, 0, 3,12.00,13.00,Sunday
7,15.8
19,28.485733053262063
2,1, 7, 1, 0, 3,13.00,14.00,Sunday
7,15.8
19,28.47037312894343
2,1, 7, 1, 0, 3,14.00,15.00,Sunday
7,15.8
19,28.455032285389194
2,1, 7, 1, 0, 3,15.00,16.00,Sunday
7,15.8
19,28.439708604334257
2,1, 7, 1, 0, 3,16.00,17.00,Sunday
7,15.8
19,28.424400404905548
2,1, 7, 1, 0, 3,17.00,18.00,Sunday
7,15.8
19,28.409106216034086
2,1, 7, 1, 0, 3,18.00,19.00,Sunday
7,15.8
19,28.393824751953623
2,1, 7, 1, 0, 3,19.00,20.00,Sunday
7,15.8
19,28.378554890479265
2,1, 7, 1, 0, 3,20.00,21.00,Sunday
7,15.8
19,28.363295653753973
2,1, 7, 1, 0, 3,21.00,22.00,Sunday
7,15.799999999999999
19,28.348046191192132
2,1, 7, 1, 0, 3,22.00,23.00,Sunday
7,15.8
19,28.33280576438373
2,1, 7, 1, 0, 3,23.00,24.00,Sunday
7,15.8
19,28.317573733747537
2,1, 7, 1, 0, 3,24.00,25.00,Sunday
7,15.8
19,28.30234954674023
2,1, 7, 1, 0, 3,25.00,26.00,Sunday
7,15.8
19,28.287132727446387
2,1, 7, 1, 0, 3,26.00,27.00,Sunday
7,15.8
19,28.27192286739051
2,1, 7, 1, 0, 3,27.00,28.00,Sunday
7,15.8
19,28.256719617430424
2,1, 7, 1, 0, 3,28.00,29.00,Sunday
7,15.799999999999999
19,28.241522680606376
2,1, 7, 1, 0, 3,29.00,30.00,Sunday
7,15.8
19,28.226331805832928
2,1, 7, 1, 0, 3,30.00,31.00,Sunday
7,15.8
19,28.211146782336026
2,1, 7, 1, 0, 3,31.00,32.00,Sunday
7,15.8
19,28.195967434746997
2,1, 7, 1, 0, 3,32.00,33.00,Sunday
7,15.8
19,28.18079361877691
2,1, 7, 1, 0, 3,33.00,34.00,Sunday
7,15.8
19,28.165625217402084
2,1, 7, 1, 0, 3,34.00,35.00,Sunday
7,15.8
19,28.150462137500767
2,1, 7, 1, 0, 3,35.00,36.00,Sunday
7,15.8
19,28.135304306888607
2,1, 7, 1, 0, 3,36.00,37.00,Sunday
7,15.8
19,28.120151671704654
2,1, 7, 1, 0, 3,37.00,38.00,Sunday
7,15.8
19,28.105004194106975
2,1, 7, 1, 0, 3,38.00,39.00,Sunday
7,15.8
19,28.089861850241736
2,1, 7, 1, 0, 3,39.00,40.00,Sunday
7,15.8
19,28.074724628453126
2,1, 7, 1, 0, 3,40.00,41.00,Sunday
7,15.8
19,28.059592527705618
2,1, 7, 1, 0, 3,41.00,42.00,Sunday
7,15.8
19,28.044465556193796
2,1, 7, 1, 0, 3,42.00,43.00,Sunday
7,15.8
19,28.02934373011734
2,1, 7, 1, 0, 3,43.00,44.00,Sunday
7,15.8
19,28.01422707260183
2,1, 7, 1, 0, 3,44.00,45.00,Sunday
7,15.8
19,27.999115612747925
2,1, 7, 1, 0, 3,45.00,46.00,Sunday
7,15.8
19,27.9840093847941
2,1, 7, 1, 0, 3,46.00,47.00,Sunday
7,15.8
19,27.968908427379535
2,1, 7, 1, 0, 3,47.00,48.00,Sunday
7,15.8
19,27.95381278289497
2,1, 7, 1, 0, 3,48.00,49.00,Sunday
7,15.8
19,27.93872249691124
2,1, 7, 1, 0, 3,49.00,50.00,Sunday
7,15.8
19,27.923637617676782
2,1, 7, 1, 0, 3,50.00,51.00,Sunday
7,15.8
19,27.908558195675358
2,1, 7, 1, 0, 3,51.00,52.00,Sunday
7,15.8
19,27.893484283237385
2,1, 7, 1, 0, 3,52.00,53.00,Sunday
7,15.8
19,27.878415934198202
2,1, 7, 1, 0, 3,53.00,54.00,Sunday
7,15.8
19,27.86335320359786
2,1, 7, 1, 0, 3,54.00,55.00,Sunday
7,15.8
19,27.848296147417646
2,1, 7, 1, 0, 3,55.00,56.00,Sunday
7,15.8
19,27.83324482234844
2,1, 7, 1, 0, 3,56.00,57.00,Sunday
7,15.8
19,27.818199285588207
2,1, 7, 1, 0, 3,57.00,58.00,Sunday
7,15.8
19,27.8031595946643
2,1, 7, 1, 0, 3,58.00,59.00,Sunday
7,15.8
19,27.78812580727788
2,1, 7, 1, 0, 3,59.00,60.00,Sunday
7,15.8
19,27.77309798116785
2,1, 7, 1, 0, 3, 0.00,60.00,Sunday
8,20.43441089213236
9,20.548886016297974
10,20.458444459126838
11,20.57272610235643
12,38.12726534039109
13,19.492435570364588
14,19.4860014922417
15,20.066307447668166
16,20.16918998814723
17,20.09215879233253
18,20.19556860965126
2,1, 7, 1, 0, 4, 0.00, 1.00,Sunday
7,15.805
19,27.758225139491216
2,1, 7, 1, 0, 4, 1.00, 2.00,Sunday
7,15.81
19,27.74365307636703
2,1, 7, 1, 0, 4, 2.00, 3.00,Sunday
7,15.815
19,27.729433561837684
2,1, 7, 1, 0, 4, 3.00, 4.00,Sunday
7,15.820000000000002
19,27.715552645992524
2,1, 7, 1, 0, 4, 4.00, 5.00,Sunday
7,15.825000000000001
19,27.701973043079445
2,1, 7, 1, 0, 4, 5.00, 6.00,Sunday
7,15.830000000000002
19,27.688656768301726
2,1, 7, 1, 0, 4, 6.00, 7.00,Sunday
7,15.835
19,27.67557155547966
2,1, 7, 1, 0, 4, 7.00, 8.00,Sunday
7,15.840000000000002
19,27.662690521319718
2,1, 7, 1, 0, 4, 8.00, 9.00,Sunday
7,15.844999999999999
19,27.649990591737563
2,1, 7, 1, 0, 4, 9.00,10.00,Sunday
7,15.850000000000001
19,27.637451430511916
2,1, 7, 1, 0, 4,10.00,11.00,Sunday
7,15.855
19,27.625054929961657
2,1, 7, 1, 0, 4,11.00,12.00,Sunday
7,15.860000000000001
19,27.612784969500375
2,1, 7, 1, 0, 4,12.00,13.00,Sunday
7,15.865
19,27.600627244354072
2,1, 7, 1, 0, 4,13.00,14.00,Sunday
7,15.870000000000001
19,27.58862994515943
2,1, 7, 1, 0, 4,14.00,15.00,Sunday
7,15.875000000000002
19,27.576849181478966
2,1, 7, 1, 0, 4,15.00,16.00,Sunday
7,15.880000000000003
19,27.565302647245655
2,1, 7, 1, 0, 4,16.00,17.00,Sunday
7,15.885000000000002
19,27.55397714483353
2,1, 7, 1, 0, 4,17.00,18.00,Sunday
7,15.89
19,27.542848020740625
2,1, 7, 1, 0, 4,18.00,19.00,Sunday
7,15.895
19,27.531890621529147
2,1, 7, 1, 0, 4,19.00,20.00,Sunday
7,15.900000000000002
19,27.521083815452386
2,1, 7, 1, 0, 4,20.00,21.00,Sunday
7,15.905000000000001
19,27.510409898916848
2,1, 7, 1, 0, 4,21.00,22.00,Sunday
7,15.91
19,27.499853722301335
2,1, 7, 1, 0, 4,22.00,23.00,Sunday
7,15.915000000000003
19,27.48940202856607
2,1, 7, 1, 0, 4,23.00,24.00,Sunday
7,15.920000000000002
19,27.479043093138017
2,1, 7, 1, 0, 4,24.00,25.00,Sunday
7,15.925
19,27.46876652766672
2,1, 7, 1, 0, 4,25.00,26.00,Sunday
7,15.93
19,27.458563140839793
2,1, 7, 1, 0, 4,26.00,27.00,Sunday
7,15.935000000000002
19,27.44842481324452
2,1, 7, 1, 0, 4,27.00,28.00,Sunday
7,15.940000000000001
19,27.438342888028068
2,1, 7, 1, 0, 4,28.00,29.00,Sunday
7,15.945
19,27.428313189311996
2,1, 7, 1, 0, 4,29.00,30.00,Sunday
7,15.950000000000001
19,27.418330018227863
2,1, 7, 1, 0, 4,30.00,31.00,Sunday
7,15.955000000000002
19,27.40838816289058
2,1, 7, 1, 0, 4,31.00,32.00,Sunday
7,15.96
19,27.398483124713472
2,1, 7, 1, 0, 4,32.00,33.00,Sunday
7,15.965000000000002
19,27.388611017003413
2,1, 7, 1, 0, 4,33.00,34.00,Sunday
7,15.97
19,27.3787684453825
2,1, 7, 1, 0, 4,34.00,35.00,Sunday
7,15.975000000000001
19,27.368952420519804
2,1, 7, 1, 0, 4,35.00,36.00,Sunday
7,15.98
19,27.35916030202829
2,1, 7, 1, 0, 4,36.00,37.00,Sunday
7,15.985000000000001
19,27.34938975818921
2,1, 7, 1, 0, 4,37.00,38.00,Sunday
7,15.990000000000002
19,27.33963873194685
2,1, 7, 1, 0, 4,38.00,39.00,Sunday
7,15.995000000000001
19,27.329905409913362
2,1, 7, 1, 0, 4,39.00,40.00,Sunday
7,16.0
19,27.32018819400904
2,1, 7, 1, 0, 4,40.00,41.00,Sunday
7,16.005000000000003
19,27.310485675961736
2,1, 7, 1, 0, 4,41.00,42.00,Sunday
7,16.01
19,27.30079661470416
2,1, 7, 1, 0, 4,42.00,43.00,Sunday
7,16.015
19,27.291119916475072
2,1, 7, 1, 0, 4,43.00,44.00,Sunday
7,16.020000000000003
19,27.281454617329747
2,1, 7, 1, 0, 4,44.00,45.00,Sunday
7,16.025000000000002
19,27.271799867760222
2,1, 7, 1, 0, 4,45.00,46.00,Sunday
7,16.03
19,27.262154919159993
2,1, 7, 1, 0, 4,46.00,47.00,Sunday
7,16.035000000000004
19,27.25251911190397
2,1, 7, 1, 0, 4,47.00,48.00,Sunday
7,16.040000000000003
19,27.24289186484669
2,1, 7, 1, 0, 4,48.00,49.00,Sunday
7,16.045
19,27.233272666067844
2,1, 7, 1, 0, 4,49.00,50.00,Sunday
7,16.05
19,27.223661064715177
2,1, 7, 1, 0, 4,50.00,51.00,Sunday
7,16.055
19,27.21405666381166
2,1, 7, 1, 0, 4,51.00,52.00,Sunday
7,16.060000000000002
19,27.20445911391329
2,1, 7, 1, 0, 4,52.00,53.00,Sunday
7,16.065
19,27.194868107514345
2,1, 7, 1, 0, 4,53.00,54.00,Sunday
7,16.07
19,27.185283374112537
2,1, 7, 1, 0, 4,54.00,55.00,Sunday
7,16.075000000000003
19,27.175704675854604
2,1, 7, 1, 0, 4,55.00,56.00,Sunday
7,16.080000000000002
19,27.166131803694306
2,1, 7, 1, 0, 4,56.00,57.00,Sunday
7,16.085
19,27.15656457400195
2,1, 7, 1, 0, 4,57.00,58.00,Sunday
7,16.09
19,27.147002825572297
2,1, 7, 1, 0, 4,58.00,59.00,Sunday
7,16.095000000000002
19,27.137446416983718
2,1, 7, 1, 0, 4,59.00,60.00,Sunday
7,16.1
19,27.12789522426752
2,1, 7, 1, 0, 4, 0.00,60.00,Sunday
8,19.980093898596884
9,20.071210199431583
10,20.046951105352438
11,20.04927643328807
12,37.04925345092238
13,18.958499451397305
14,18.9719203546208
15,19.66135973265744
16,19.742342896135156
17,19.727782785867912
18,19.72501707987091
2,1, 7, 1, 0, 5, 0.00, 1.00,Sunday
7,16.113333333333333
19,27.11860443573168
2,1, 7, 1, 0, 5, 1.00, 2.00,Sunday
7,16.12666666666667
19,27.10982823996443
2,1, 7, 1, 0, 5, 2.00, 3.00,Sunday
7,16.14
19,27.10166018289191
2,1, 7, 1, 0, 5, 3.00, 4.00,Sunday
7,16.153333333333336
19,27.094078382373617
2,1, 7, 1, 0, 5, 4.00, 5.00,Sunday
7,16.166666666666668
19,27.087018606075848
2,1, 7, 1, 0, 5, 5.00, 6.00,Sunday
7,16.180000000000003
19,27.080414412839765
2,1, 7, 1, 0, 5, 6.00, 7.00,Sunday
7,16.193333333333335
19,27.074209014194665
2,1, 7, 1, 0, 5, 7.00, 8.00,Sunday
7,16.206666666666667
19,27.068355004934322
2,1, 7, 1, 0, 5, 8.00, 9.00,Sunday
7,16.22
19,27.062811694087287
2,1, 7, 1, 0, 5, 9.00,10.00,Sunday
7,16.233333333333334
19,27.057543223568942
2,1, 7, 1, 0, 5,10.00,11.00,Sunday
7,16.246666666666666
19,27.0525176566295
2,1, 7, 1, 0, 5,11.00,12.00,Sunday
7,16.26
19,27.04770654397303
2,1, 7, 1, 0, 5,12.00,13.00,Sunday
7,16.273333333333333
19,27.043084620979545
2,1, 7, 1, 0, 5,13.00,14.00,Sunday
7,16.286666666666665
19,27.038629511656957
2,1, 7, 1, 0, 5,14.00,15.00,Sunday
7,16.3
19,27.034321427909802
2,1, 7, 1, 0, 5,15.00,16.00,Sunday
7,16.313333333333333
19,27.03014288101622
2,1, 7, 1, 0, 5,16.00,17.00,Sunday
7,16.326666666666668
19,27.026078417718463
2,1, 7, 1, 0, 5,17.00,18.00,Sunday
7,16.34
19,27.02211438454321
2,1, 7, 1, 0, 5,18.00,19.00,Sunday
7,16.353333333333335
19,27.018238719012402
2,1, 7, 1, 0, 5,19.00,20.00,Sunday
7,16.366666666666667
19,27.014440764892644
2,1, 7, 1, 0, 5,20.00,21.00,Sunday
7,16.380000000000003
19,27.010711108658324
2,1, 7, 1, 0, 5,21.00,22.00,Sunday
7,16.39333333333333
19,27.007041434735143
2,1, 7, 1, 0, 5,22.00,23.00,Sunday
7,16.406666666666666
19,27.003424397430138
2,1, 7, 1, 0, 5,23.00,24.00,Sunday
7,16.42
19,26.99985350769423
2,1, 7, 1, 0, 5,24.00,25.00,Sunday
7,16.43333333333333
19,26.99632303305196
2,1, 7, 1, 0, 5,25.00,26.00,Sunday
7,16.446666666666665
19,26.992827909199267
2,1, 7, 1, 0, 5,26.00,27.00,Sunday
7,16.46
19,26.989363661924692
2,1, 7, 1, 0, 5,27.00,28.00,Sunday
7,16.473333333333333
19,26.985926338157196
2,1, 7, 1, 0, 5,28.00,29.00,Sunday
7,16.486666666666665
19,26.982512445078015
2,1, 7, 1, 0, 5,29.00,30.00,Sunday
7,16.5
19,26.97911889635484
2,1, 7, 1, 0, 5,30.00,31.00,Sunday
7,16.513333333333335
19,26.975742964666804
2,1, 7, 1, 0, 5,31.00,32.00,Sunday
7,16.526666666666667
19,26.97238223978384
2,1, 7, 1, 0, 5,32.00,33.00,Sunday
7,16.54
19,26.9690345915503
2,1, 7, 1, 0, 5,33.00,34.00,Sunday
7,16.553333333333335
19,26.965698137198363
2,1, 7, 1, 0, 5,34.00,35.00,Sunday
7,16.566666666666666
19,26.96237121248396
2,1, 7, 1, 0, 5,35.00,36.00,Sunday
7,16.58
19,26.95912099715555
2,1, 7, 1, 0, 5,36.00,37.00,Sunday
7,16.593333333333334
19,26.956022100337403
2,1, 7, 1, 0, 5,37.00,38.00,Sunday
7,16.606666666666666
19,26.953104721344413
2,1, 7, 1, 0, 5,38.00,39.00,Sunday
7,16.619999999999997
19,26.950363195355045
2,1, 7, 1, 0, 5,39.00,40.00,Sunday
7,16.633333333333333
19,26.94777786739841
2,1, 7, 1, 0, 5,40.00,41.00,Sunday
7,16.646666666666665
19,26.94532806834825
2,1, 7, 1, 0, 5,41.00,42.00,Sunday
7,16.66
19,26.942996203716707
2,1, 7, 1, 0, 5,42.00,43.00,Sunday
7,16.673333333333332
19,26.940767770851092
2,1, 7, 1, 0, 5,43.00,44.00,Sunday
7,16.686666666666667
19,26.93863047789031
2,1, 7, 1, 0, 5,44.00,45.00,Sunday
7,16.7
19,26.93657358331693
2,1, 7, 1, 0, 5,45.00,46.00,Sunday
7,16.713333333333335
19,26.93458756104483
2,1, 7, 1, 0, 5,46.00,47.00,Sunday
7,16.726666666666667
19,26.932663940573896
2,1, 7, 1, 0, 5,47.00,48.00,Sunday
7,16.74
19,26.930795204185753
2,1, 7, 1, 0, 5,48.00,49.00,Sunday
7,16.753333333333334
19,26.928974693777196
2,1, 7, 1, 0, 5,49.00,50.00,Sunday
7,16.766666666666666
19,26.92719651915065
2,1, 7, 1, 0, 5,50.00,51.00,Sunday
7,16.779999999999998
19,26.925455471125243
2,1, 7, 1, 0, 5,51.00,52.00,Sunday
7,16.793333333333333
19,26.923746942654788
2,1, 7, 1, 0, 5,52.00,53.00,Sunday
7,16.806666666666665
19,26.92206685880768
2,1, 7, 1, 0, 5,53.00,54.00,Sunday
7,16.82
19,26.92041161503426
2,1, 7, 1, 0, 5,54.00,55.00,Sunday
7,16.833333333333332
19,26.918778022725803
2,1, 7, 1, 0, 5,55.00,56.00,Sunday
7,16.846666666666664
19,26.917163261120905
2,1, 7, 1, 0, 5,56.00,57.00,Sunday
7,16.859999999999996
19,26.92702298729115
2,1, 7, 1, 0, 5,57.00,58.00,Sunday
7,16.87333333333333
19,26.959128596065934
2,1, 7, 1, 0, 5,58.00,59.00,Sunday
7,16.886666666666667
19,27.01174005556242
2,1, 7, 1, 0, 5,59.00,60.00,Sunday
7,16.9
19,27.073776318326075
2,1, 7, 1, 0, 5, 0.00,60.00,Sunday
8,20.05712056785795
9,20.123486854925844
10,20.16365156540406
11,20.06567222264002
12,36.211072604390736
13,18.97421821594568
14,19.004727494757194
15,19.78648975962272
16,19.849107945599354
17,19.88497901232844
18,19.8007405672664
2,1, 7, 1, 0, 6, 0.00, 1.00,Sunday
7,16.924999999999997
19,27.136066458083885
2,1, 7, 1, 0, 6, 1.00, 2.00,Sunday
7,16.95
19,27.194909791596803
2,1, 7, 1, 0, 6, 2.00, 3.00,Sunday
7,16.974999999999994
19,27.249837772349256
2,1, 7, 1, 0, 6, 3.00, 4.00,Sunday
7,17.0
19,27.301424263280214
2,1, 7, 1, 0, 6, 4.00, 5.00,Sunday
7,17.025
19,27.35028498357999
2,1, 7, 1, 0, 6, 5.00, 6.00,Sunday
7,17.049999999999997
19,27.39685016639773
2,1, 7, 1, 0, 6, 6.00, 7.00,Sunday
7,17.074999999999996
19,27.44141014816649
2,1, 7, 1, 0, 6, 7.00, 8.00,Sunday
7,17.1
19,27.48418885311524
2,1, 7, 1, 0, 6, 8.00, 9.00,Sunday
7,17.125
19,27.525382920536366
2,1, 7, 1, 0, 6, 9.00,10.00,Sunday
7,17.15
19,27.565173434015474
2,1, 7, 1, 0, 6,10.00,11.00,Sunday
7,17.174999999999997
19,27.603726710946155
2,1, 7, 1, 0, 6,11.00,12.00,Sunday
7,17.2
19,27.641193382422443
2,1, 7, 1, 0, 6,12.00,13.00,Sunday
7,17.224999999999998
19,27.67770848369271
2,1, 7, 1, 0, 6,13.00,14.00,Sunday
7,17.25
19,27.713392502467944
2,1, 7, 1, 0, 6,14.00,15.00,Sunday
7,17.275
19,27.748352800175873
2,1, 7, 1, 0, 6,15.00,16.00,Sunday
7,17.299999999999997
19,27.78268503628156
2,1, 7, 1, 0, 6,16.00,17.00,Sunday
7,17.325
19,27.816474452976465
2,1, 7, 1, 0, 6,17.00,18.00,Sunday
7,17.349999999999998
19,27.8497970128232
2,1, 7, 1, 0, 6,18.00,19.00,Sunday
7,17.375
19,27.882720412966584
2,1, 7, 1, 0, 6,19.00,20.00,Sunday
7,17.4
19,27.915304984296522
2,1, 7, 1, 0, 6,20.00,21.00,Sunday
7,17.424999999999997
19,27.947604506599024
2,1, 7, 1, 0, 6,21.00,22.00,Sunday
7,17.449999999999996
19,27.979666934552288
2,1, 7, 1, 0, 6,22.00,23.00,Sunday
7,17.475
19,28.0115350435205
2,1, 7, 1, 0, 6,23.00,24.00,Sunday
7,17.5
19,28.04324701061035
2,1, 7, 1, 0, 6,24.00,25.00,Sunday
7,17.525
19,28.074836929883446
2,1, 7, 1, 0, 6,25.00,26.00,Sunday
7,17.549999999999997
19,28.10633527053372
2,1, 7, 1, 0, 6,26.00,27.00,Sunday
7,17.575
19,28.137769280083734
2,1, 7, 1, 0, 6,27.00,28.00,Sunday
7,17.599999999999998
19,28.16916333930694
2,1, 7, 1, 0, 6,28.00,29.00,Sunday
7,17.625
19,28.20053929324487
2,1, 7, 1, 0, 6,29.00,30.00,Sunday
7,17.65
19,28.23181537608154
2,1, 7, 1, 0, 6,30.00,31.00,Sunday
7,17.674999999999997
19,28.262835876980095
2,1, 7, 1, 0, 6,31.00,32.00,Sunday
7,17.7
19,28.293518247954882
2,1, 7, 1, 0, 6,32.00,33.00,Sunday
7,17.724999999999998
19,28.323878442189006
2,1, 7, 1, 0, 6,33.00,34.00,Sunday
7,17.75
19,28.353979169032375
2,1, 7, 1, 0, 6,34.00,35.00,Sunday
7,17.775
19,28.383890352154488
2,1, 7, 1, 0, 6,35.00,36.00,Sunday
7,17.799999999999997
19,28.41367362416684
2,1, 7, 1, 0, 6,36.00,37.00,Sunday
7,17.825
19,28.443380299444396
2,1, 7, 1, 0, 6,37.00,38.00,Sunday
7,17.849999999999998
19,28.473053423450356
2,1, 7, 1, 0, 6,38.00,39.00,Sunday
7,17.875
19,28.502729846115226
2,1, 7, 1, 0, 6,39.00,40.00,Sunday
7,17.9
19,28.532441513752293
2,1, 7, 1, 0, 6,40.00,41.00,Sunday
7,17.924999999999997
19,28.562216198339673
2,1, 7, 1, 0, 6,41.00,42.00,Sunday
7,17.95
19,28.592077999856762
2,1, 7, 1, 0, 6,42.00,43.00,Sunday
7,17.974999999999998
19,28.622047772736376
2,1, 7, 1, 0, 6,43.00,44.00,Sunday
7,17.999999999999996
19,28.65214352512794
2,1, 7, 1, 0, 6,44.00,45.00,Sunday
7,18.025
19,28.682380785125773
2,1, 7, 1, 0, 6,45.00,46.00,Sunday
7,18.05
19,28.712772924626233
2,1, 7, 1, 0, 6,46.00,47.00,Sunday
7,18.075
19,28.743331448368863
2,1, 7, 1, 0, 6,47.00,48.00,Sunday
7,18.099999999999998
19,28.77406624988789
2,1, 7, 1, 0, 6,48.00,49.00,Sunday
7,18.125
19,28.804985824277747
2,1, 7, 1, 0, 6,49.00,50.00,Sunday
7,18.15
19,28.836097459788352
2,1, 7, 1, 0, 6,50.00,51.00,Sunday
7,18.174999999999997
19,28.86740739916926
2,1, 7, 1, 0, 6,51.00,52.00,Sunday
7,18.2
19,28.89892098195145
2,1, 7, 1, 0, 6,52.00,53.00,Sunday
7,18.224999999999998
19,28.930642774635242
2,1, 7, 1, 0, 6,53.00,54.00,Sunday
7,18.25
19,28.962576679093665
2,1, 7, 1, 0, 6,54.00,55.00,Sunday
7,18.275
19,28.99470939475528
2,1, 7, 1, 0, 6,55.00,56.00,Sunday
7,18.299999999999997
19,29.027042536754806
2,1, 7, 1, 0, 6,56.00,57.00,Sunday
7,18.324999999999996
19,29.05958874483321
2,1, 7, 1, 0, 6,57.00,58.00,Sunday
7,18.349999999999998
19,29.0928714996701
2,1, 7, 1, 0, 6,58.00,59.00,Sunday
7,18.374999999999996
19,29.12751096138085
2,1, 7, 1, 0, 6,59.00,60.00,Sunday
7,18.4
19,29.16372915399647
2,1, 7, 1, 0, 6, 0.00,60.00,Sunday
8,22.26001226454152
9,21.787863585070138
10,22.870682252570624
11,21.723790753211812
12,37.329377638076814
13,20.893738486991918
14,20.68577405042512
15,21.498502553051797
16,21.364130733546872
17,21.76337858317369
18,21.314089110567256
2,1, 7, 1, 0, 7, 0.00, 1.00,Sunday
7,18.38333333333333
19,29.20008463407103
2,1, 7, 1, 0, 7, 1.00, 2.00,Sunday
7,18.366666666666664
19,29.23570977470291
2,1, 7, 1, 0, 7, 2.00, 3.00,Sunday
7,18.349999999999998
19,29.27035069250085
2,1, 7, 1, 0, 7, 3.00, 4.00,Sunday
7,18.333333333333332
19,29.304063792579694
2,1, 7, 1, 0, 7, 4.00, 5.00,Sunday
7,18.316666666666663
19,29.337015876270478
2,1, 7, 1, 0, 7, 5.00, 6.00,Sunday
7,18.299999999999997
19,29.369321666843533
2,1, 7, 1, 0, 7, 6.00, 7.00,Sunday
7,18.28333333333333
19,29.40107612034018
2,1, 7, 1, 0, 7, 7.00, 8.00,Sunday
7,18.266666666666666
19,29.432359749607624
2,1, 7, 1, 0, 7, 8.00, 9.00,Sunday
7,18.25
19,29.46324493981471
2,1, 7, 1, 0, 7, 9.00,10.00,Sunday
7,18.23333333333333
19,29.493797918768987
2,1, 7, 1, 0, 7,10.00,11.00,Sunday
7,18.216666666666665
19,29.52407890527041
2,1, 7, 1, 0, 7,11.00,12.00,Sunday
7,18.2
19,29.55414208588128
2,1, 7, 1, 0, 7,12.00,13.00,Sunday
7,18.183333333333334
19,29.584035831168933
2,1, 7, 1, 0, 7,13.00,14.00,Sunday
7,18.166666666666664
19,29.613803133626323
2,1, 7, 1, 0, 7,14.00,15.00,Sunday
7,18.15
19,29.643482145929813