Program Version,EnergyPlus, Version 25.1.0-1c11a3d85f, YMD=2026.04.10 14:05
1,5,Environment Title[],Latitude[deg],Longitude[deg],Time Zone[],Elevation[m]
2,8,Day of Simulation[],Month[],Day of Month[],DST Indicator[1=yes 0=no],Hour[],StartMinute[],EndMinute[],DayType
3,5,Cumulative Day of Simulation[],Month[],Day of Month[],DST Indicator[1=yes 0=no],DayType  ! When Daily Report Variables Requested
4,2,Cumulative Days of Simulation[],Month[]  ! When Monthly Report Variables Requested
5,1,Cumulative Days of Simulation[] ! When Run Period Report Variables Requested
6,1,Calendar Year of Simulation[] ! When Annual Report Variables Requested
7,1,Environment,Site Outdoor Air Drybulb Temperature [C] !TimeStep
8,1,WALL_N,Surface Inside Face Temperature [C] !Hourly
9,1,WALL_S,Surface Inside Face Temperature [C] !Hourly
10,1,WALL_E,Surface Inside Face Temperature [C] !Hourly
11,1,WALL_W,Surface Inside Face Temperature [C] !Hourly
12,1,FLOOR,Surface Inside Face Temperature [C] !Hourly
13,1,ROOF,Surface Inside Face Temperature [C] !Hourly
14,1,ROOF_GLASS,Surface Inside Face Temperature [C] !Hourly
15,1,WALL_N_GLASS,Surface Inside Face Temperature [C] !Hourly
16,1,WALL_S_GLASS,Surface Inside Face Temperature [C] !Hourly
17,1,WALL_E_GLASS,Surface Inside Face Temperature [C] !Hourly
18,1,WALL_W_GLASS,Surface Inside Face Temperature [C] !Hourly
19,1,GREENHOUSE,Zone Mean Air Temperature [C] !TimeStep
End of Data Dictionary
1,RUN PERIOD 1,  45.64,   5.88,   1.00, 235.00
2,1, 7, 1, 0, 1, 0.00, 1.00,Sunday
7,20.231666666666666
19,25.828691160907088
2,1, 7, 1, 0, 1, 1.00, 2.00,Sunday
7,20.163333333333334
19,25.807600072424766
2,1, 7, 1, 0, 1, 2.00, 3.00,Sunday
7,20.095
19,25.77998128934562
2,1, 7, 1, 0, 1, 3.00, 4.00,Sunday
7,20.026666666666667
19,25.746869934790176
2,1, 7, 1, 0, 1, 4.00, 5.00,Sunday
7,19.958333333333336
19,25.709622821759396
2,1, 7, 1, 0, 1, 5.00, 6.00,Sunday
7,19.89
19,25.669383697538052
2,1, 7, 1, 0, 1, 6.00, 7.00,Sunday
7,19.82166666666667
19,25.626973312469897
2,1, 7, 1, 0, 1, 7.00, 8.00,Sunday
7,19.753333333333334
19,25.582955784368632
2,1, 7, 1, 0, 1, 8.00, 9.00,Sunday
7,19.685
19,25.537727156908947
2,1, 7, 1, 0, 1, 9.00,10.00,Sunday
7,19.616666666666667
19,25.491576639859613
2,1, 7, 1, 0, 1,10.00,11.00,Sunday
7,19.548333333333332
19,25.44472261145614
2,1, 7, 1, 0, 1,11.00,12.00,Sunday
7,19.480000000000004
19,25.397331089031027
2,1, 7, 1, 0, 1,12.00,13.00,Sunday
7,19.41166666666667
19,25.561027022407462
2,1, 7, 1, 0, 1,13.00,14.00,Sunday
7,19.343333333333334
19,25.873252309281177
2,1, 7, 1, 0, 1,14.00,15.00,Sunday
7,19.275000000000002
19,26.209793876827092
2,1, 7, 1, 0, 1,15.00,16.00,Sunday
7,19.206666666666667
19,26.49922945863416
2,1, 7, 1, 0, 1,16.00,17.00,Sunday
7,19.138333333333335
19,26.723326856611145
2,1, 7, 1, 0, 1,17.00,18.00,Sunday
7,19.07
19,26.889749515469543
2,1, 7, 1, 0, 1,18.00,19.00,Sunday
7,19.00166666666667
19,27.011202699045068
2,1, 7, 1, 0, 1,19.00,20.00,Sunday
7,18.933333333333334
19,27.097243656338144
2,1, 7, 1, 0, 1,20.00,21.00,Sunday
7,18.865
19,27.154958716374832
2,1, 7, 1, 0, 1,21.00,22.00,Sunday
7,18.796666666666667
19,27.189567248155573
2,1, 7, 1, 0, 1,22.00,23.00,Sunday
7,18.728333333333335
19,27.205152934842314
2,1, 7, 1, 0, 1,23.00,24.00,Sunday
7,18.66
19,27.205077502734785
2,1, 7, 1, 0, 1,24.00,25.00,Sunday
7,18.591666666666665
19,27.192155092921933
2,1, 7, 1, 0, 1,25.00,26.00,Sunday
7,18.523333333333333
19,27.168730187143836
2,1, 7, 1, 0, 1,26.00,27.00,Sunday
7,18.455000000000002
19,27.13673593898333
2,1, 7, 1, 0, 1,27.00,28.00,Sunday
7,18.386666666666667
19,27.09775361837284
2,1, 7, 1, 0, 1,28.00,29.00,Sunday
7,18.318333333333335
19,27.053071175958145
2,1, 7, 1, 0, 1,29.00,30.00,Sunday
7,18.25
19,27.00407314568609
2,1, 7, 1, 0, 1,30.00,31.00,Sunday
7,18.181666666666665
19,26.95196490689792
2,1, 7, 1, 0, 1,31.00,32.00,Sunday
7,18.113333333333333
19,26.897524451469614
2,1, 7, 1, 0, 1,32.00,33.00,Sunday
7,18.045
19,26.84122682279724
2,1, 7, 1, 0, 1,33.00,34.00,Sunday
7,17.976666666666667
19,26.783394304518392
2,1, 7, 1, 0, 1,34.00,35.00,Sunday
7,17.90833333333333
19,26.724278873164465
2,1, 7, 1, 0, 1,35.00,36.00,Sunday
7,17.84
19,26.664091618873233
2,1, 7, 1, 0, 1,36.00,37.00,Sunday
7,17.77166666666667
19,26.603009969842514
2,1, 7, 1, 0, 1,37.00,38.00,Sunday
7,17.703333333333333
19,26.54118035134212
2,1, 7, 1, 0, 1,38.00,39.00,Sunday
7,17.634999999999998
19,26.47872168081454
2,1, 7, 1, 0, 1,39.00,40.00,Sunday
7,17.566666666666666
19,26.415729744845667
2,1, 7, 1, 0, 1,40.00,41.00,Sunday
7,17.498333333333335
19,26.35228148692328
2,1, 7, 1, 0, 1,41.00,42.00,Sunday
7,17.43
19,26.28843865217422
2,1, 7, 1, 0, 1,42.00,43.00,Sunday
7,17.361666666666665
19,26.224250701439562
2,1, 7, 1, 0, 1,43.00,44.00,Sunday
7,17.293333333333333
19,26.159757112555695
2,1, 7, 1, 0, 1,44.00,45.00,Sunday
7,17.224999999999998
19,26.09498921389275
2,1, 7, 1, 0, 1,45.00,46.00,Sunday
7,17.156666666666666
19,26.029971661377278
2,1, 7, 1, 0, 1,46.00,47.00,Sunday
7,17.08833333333333
19,25.96472363489941
2,1, 7, 1, 0, 1,47.00,48.00,Sunday
7,17.02
19,25.89925980763892
2,1, 7, 1, 0, 1,48.00,49.00,Sunday
7,16.951666666666664
19,25.8335911294184
2,1, 7, 1, 0, 1,49.00,50.00,Sunday
7,16.883333333333333
19,25.767725457516384
2,1, 7, 1, 0, 1,50.00,51.00,Sunday
7,16.815
19,25.70166806253141
2,1, 7, 1, 0, 1,51.00,52.00,Sunday
7,16.746666666666666
19,25.63542203187096
2,1, 7, 1, 0, 1,52.00,53.00,Sunday
7,16.678333333333335
19,25.568988589074223
2,1, 7, 1, 0, 1,53.00,54.00,Sunday
7,16.61
19,25.50236734345774
2,1, 7, 1, 0, 1,54.00,55.00,Sunday
7,16.541666666666664
19,25.435556481426
2,1, 7, 1, 0, 1,55.00,56.00,Sunday
7,16.473333333333333
19,25.36855290809386
2,1, 7, 1, 0, 1,56.00,57.00,Sunday
7,16.405
19,25.301352345452408
2,1, 7, 1, 0, 1,57.00,58.00,Sunday
7,16.336666666666666
19,25.233949391010725
2,1, 7, 1, 0, 1,58.00,59.00,Sunday
7,16.26833333333333
19,25.166337538411746
2,1, 7, 1, 0, 1,59.00,60.00,Sunday
7,16.2
19,25.09850915865248
2,1, 7, 1, 0, 1, 0.00,60.00,Sunday
8,19.85409593961759
9,19.89755579146813
10,19.85352204683803
11,19.898100971308256
12,39.36638236511559
13,18.456869517336354
14,18.425614040874372
15,19.730810362155538
16,19.77022756704433
17,19.72993324974953
18,19.771109155081792
2,1, 7, 1, 0, 2, 0.00, 1.00,Sunday
7,16.19333333333333
19,25.034684467849978
2,1, 7, 1, 0, 2, 1.00, 2.00,Sunday
7,16.186666666666667
19,24.977644376899207
2,1, 7, 1, 0, 2, 2.00, 3.00,Sunday
7,16.18
19,24.927798489807206
2,1, 7, 1, 0, 2, 3.00, 4.00,Sunday
7,16.173333333333332
19,24.884274434547333
2,1, 7, 1, 0, 2, 4.00, 5.00,Sunday
7,16.166666666666664
19,24.845917529527913
2,1, 7, 1, 0, 2, 5.00, 6.00,Sunday
7,16.16
19,24.81178095261165
2,1, 7, 1, 0, 2, 6.00, 7.00,Sunday
7,16.153333333333332
19,24.781219914142955
2,1, 7, 1, 0, 2, 7.00, 8.00,Sunday
7,16.146666666666665
19,24.753468470169857
2,1, 7, 1, 0, 2, 8.00, 9.00,Sunday
7,16.14
19,24.72797086455387
2,1, 7, 1, 0, 2, 9.00,10.00,Sunday
7,16.133333333333333
19,24.70432734517076
2,1, 7, 1, 0, 2,10.00,11.00,Sunday
7,16.126666666666665
19,24.68222624575683
2,1, 7, 1, 0, 2,11.00,12.00,Sunday
7,16.12
19,24.66140879773602
2,1, 7, 1, 0, 2,12.00,13.00,Sunday
7,16.113333333333333
19,24.641656152059017
2,1, 7, 1, 0, 2,13.00,14.00,Sunday
7,16.106666666666666
19,24.622784251793917
2,1, 7, 1, 0, 2,14.00,15.00,Sunday
7,16.099999999999998
19,24.6046398438777
2,1, 7, 1, 0, 2,15.00,16.00,Sunday
7,16.093333333333334
19,24.58709615151467
2,1, 7, 1, 0, 2,16.00,17.00,Sunday
7,16.086666666666666
19,24.570048553287798
2,1, 7, 1, 0, 2,17.00,18.00,Sunday
7,16.08
19,24.553410724281612
2,1, 7, 1, 0, 2,18.00,19.00,Sunday
7,16.073333333333334
19,24.537111400938098
2,1, 7, 1, 0, 2,19.00,20.00,Sunday
7,16.066666666666666
19,24.521091726572312
2,1, 7, 1, 0, 2,20.00,21.00,Sunday
7,16.06
19,24.505303066021824
2,1, 7, 1, 0, 2,21.00,22.00,Sunday
7,16.053333333333335
19,24.489705159211077
2,1, 7, 1, 0, 2,22.00,23.00,Sunday
7,16.046666666666667
19,24.474264804049604
2,1, 7, 1, 0, 2,23.00,24.00,Sunday
7,16.04
19,24.458955615727966
2,1, 7, 1, 0, 2,24.00,25.00,Sunday
7,16.03333333333333
19,24.44375605624482
2,1, 7, 1, 0, 2,25.00,26.00,Sunday
7,16.026666666666667
19,24.428648044157793
2,1, 7, 1, 0, 2,26.00,27.00,Sunday
7,16.02
19,24.413616412814495
2,1, 7, 1, 0, 2,27.00,28.00,Sunday
7,16.013333333333332
19,24.39864855477806
2,1, 7, 1, 0, 2,28.00,29.00,Sunday
7,16.006666666666668
19,24.38373406251732
2,1, 7, 1, 0, 2,29.00,30.00,Sunday
7,16.0
19,24.36886436917836
2,1, 7, 1, 0, 2,30.00,31.00,Sunday
7,15.993333333333332
19,24.35403242451701
2,1, 7, 1, 0, 2,31.00,32.00,Sunday
7,15.986666666666668
19,24.339232422057243
2,1, 7, 1, 0, 2,32.00,33.00,Sunday
7,15.98
19,24.32445957663098
2,1, 7, 1, 0, 2,33.00,34.00,Sunday
7,15.973333333333333
19,24.309709943867123
2,1, 7, 1, 0, 2,34.00,35.00,Sunday
7,15.966666666666665
19,24.29498027277064
2,1, 7, 1, 0, 2,35.00,36.00,Sunday
7,15.96
19,24.280267884493206
2,1, 7, 1, 0, 2,36.00,37.00,Sunday
7,15.953333333333333
19,24.265570572283842
2,1, 7, 1, 0, 2,37.00,38.00,Sunday
7,15.946666666666665
19,24.25088651885434
2,1, 7, 1, 0, 2,38.00,39.00,Sunday
7,15.940000000000001
19,24.236214228155376
2,1, 7, 1, 0, 2,39.00,40.00,Sunday
7,15.933333333333334
19,24.22155246907831
2,1, 7, 1, 0, 2,40.00,41.00,Sunday
7,15.926666666666666
19,24.206900229009964
2,1, 7, 1, 0, 2,41.00,42.00,Sunday
7,15.920000000000002
19,24.192256675517054
2,1, 7, 1, 0, 2,42.00,43.00,Sunday
7,15.913333333333334
19,24.17762112473522
2,1, 7, 1, 0, 2,43.00,44.00,Sunday
7,15.906666666666666
19,24.16299301528879
2,1, 7, 1, 0, 2,44.00,45.00,Sunday
7,15.900000000000002
19,24.148371886772622
2,1, 7, 1, 0, 2,45.00,46.00,Sunday
7,15.893333333333334
19,24.133757361998267
2,1, 7, 1, 0, 2,46.00,47.00,Sunday
7,15.886666666666667
19,24.11914913234572
2,1, 7, 1, 0, 2,47.00,48.00,Sunday
7,15.879999999999999
19,24.10454694567859
2,1, 7, 1, 0, 2,48.00,49.00,Sunday
7,15.873333333333335
19,24.089950596374333
2,1, 7, 1, 0, 2,49.00,50.00,Sunday
7,15.866666666666667
19,24.07535991709938
2,1, 7, 1, 0, 2,50.00,51.00,Sunday
7,15.86
19,24.060774772024413
2,1, 7, 1, 0, 2,51.00,52.00,Sunday
7,15.853333333333335
19,24.046184792629052
2,1, 7, 1, 0, 2,52.00,53.00,Sunday
7,15.846666666666668
19,24.03157944337696
2,1, 7, 1, 0, 2,53.00,54.00,Sunday
7,15.84
19,24.016955619466117
2,1, 7, 1, 0, 2,54.00,55.00,Sunday
7,15.833333333333336
19,24.002315569586035
2,1, 7, 1, 0, 2,55.00,56.00,Sunday
7,15.826666666666668
19,23.987663201398693
2,1, 7, 1, 0, 2,56.00,57.00,Sunday
7,15.82
19,23.97300208490211
2,1, 7, 1, 0, 2,57.00,58.00,Sunday
7,15.813333333333333
19,23.95833496436286
2,1, 7, 1, 0, 2,58.00,59.00,Sunday
7,15.806666666666668
19,23.94366389923706
2,1, 7, 1, 0, 2,59.00,60.00,Sunday
7,15.8
19,23.928990495027374
2,1, 7, 1, 0, 2, 0.00,60.00,Sunday
8,18.39692292354913
9,18.456531592171654
10,18.396044098737846
11,18.45744116188742
12,37.74000699731357
13,16.064919102478157
14,16.03685538894325
15,18.139618356215063
16,18.191054212042168
17,18.138501553811032
18,18.19217753161321
2,1, 7, 1, 0, 3, 0.00, 1.00,Sunday
7,15.8
19,23.914408930273158
2,1, 7, 1, 0, 3, 1.00, 2.00,Sunday
7,15.8
19,23.900008168010462
2,1, 7, 1, 0, 3, 2.00, 3.00,Sunday
7,15.8
19,23.885816696723474
2,1, 7, 1, 0, 3, 3.00, 4.00,Sunday
7,15.8
19,23.87181922266303
2,1, 7, 1, 0, 3, 4.00, 5.00,Sunday
7,15.8
19,23.857985918892314
2,1, 7, 1, 0, 3, 5.00, 6.00,Sunday
7,15.8
19,23.84428842225223
2,1, 7, 1, 0, 3, 6.00, 7.00,Sunday
7,15.8
19,23.8307041188491
2,1, 7, 1, 0, 3, 7.00, 8.00,Sunday
7,15.800000000000002
19,23.817215430875088
2,1, 7, 1, 0, 3, 8.00, 9.00,Sunday
7,15.8
19,23.803808263797908
2,1, 7, 1, 0, 3, 9.00,10.00,Sunday
7,15.8
19,23.790470947406355
2,1, 7, 1, 0, 3,10.00,11.00,Sunday
7,15.8
19,23.77719368796508
2,1, 7, 1, 0, 3,11.00,12.00,Sunday
7,15.8
19,23.76396827116291
2,1, 7, 1, 0, 3,12.00,13.00,Sunday
7,15.8
19,23.750787843707844
2,1, 7, 1, 0, 3,13.00,14.00,Sunday
7,15.8
19,23.73764671421072
2,1, 7, 1, 0, 3,14.00,15.00,Sunday
7,15.8
19,23.72454016832941
2,1, 7, 1, 0, 3,15.00,16.00,Sunday
7,15.8
19,23.711464304970548
2,1, 7, 1, 0, 3,16.00,17.00,Sunday
7,15.8
19,23.698415896870973
2,1, 7, 1, 0, 3,17.00,18.00,Sunday
7,15.8
19,23.685392274347176
2,1, 7, 1, 0, 3,18.00,19.00,Sunday
7,15.8
19,23.672391228974735
2,1, 7, 1, 0, 3,19.00,20.00,Sunday
7,15.8
19,23.659410933793662
2,1, 7, 1, 0, 3,20.00,21.00,Sunday
7,15.8
19,23.646449877150154
2,1, 7, 1, 0, 3,21.00,22.00,Sunday
7,15.799999999999999
19,23.633506807847066
2,1, 7, 1, 0, 3,22.00,23.00,Sunday
7,15.8
19,23.620580689712614
2,1, 7, 1, 0, 3,23.00,24.00,Sunday
7,15.8
19,23.607670664012858
2,1, 7, 1, 0, 3,24.00,25.00,Sunday
7,15.8
19,23.594776018385037
2,1, 7, 1, 0, 3,25.00,26.00,Sunday
7,15.8
19,23.58189616118007
2,1, 7, 1, 0, 3,26.00,27.00,Sunday
7,15.8
19,23.5690306002824
2,1, 7, 1, 0, 3,27.00,28.00,Sunday
7,15.8
19,23.556178925632857
2,1, 7, 1, 0, 3,28.00,29.00,Sunday
7,15.799999999999999
19,23.543340794811378
2,1, 7, 1, 0, 3,29.00,30.00,Sunday
7,15.8
19,23.530515921146648
2,1, 7, 1, 0, 3,30.00,31.00,Sunday
7,15.8
19,23.517704063911253
2,1, 7, 1, 0, 3,31.00,32.00,Sunday
7,15.8
19,23.504905020237967
2,1, 7, 1, 0, 3,32.00,33.00,Sunday
7,15.8
19,23.49211861845607
2,1, 7, 1, 0, 3,33.00,34.00,Sunday
7,15.8
19,23.479344712598255
2,1, 7, 1, 0, 3,34.00,35.00,Sunday
7,15.8
19,23.46658317787356
2,1, 7, 1, 0, 3,35.00,36.00,Sunday
7,15.8
19,23.453833906936357
2,1, 7, 1, 0, 3,36.00,37.00,Sunday
7,15.8
19,23.44109680681071
2,1, 7, 1, 0, 3,37.00,38.00,Sunday
7,15.8
19,23.428371796356174
2,1, 7, 1, 0, 3,38.00,39.00,Sunday
7,15.8
19,23.41565880417937
2,1, 7, 1, 0, 3,39.00,40.00,Sunday
7,15.8
19,23.402957766913307
2,1, 7, 1, 0, 3,40.00,41.00,Sunday
7,15.8
19,23.39026862779869
2,1, 7, 1, 0, 3,41.00,42.00,Sunday
7,15.8
19,23.377591335514698
2,1, 7, 1, 0, 3,42.00,43.00,Sunday
7,15.8
19,23.364925843216188
2,1, 7, 1, 0, 3,43.00,44.00,Sunday
7,15.8
19,23.35227210773954
2,1, 7, 1, 0, 3,44.00,45.00,Sunday
7,15.8
19,23.339630088948653
2,1, 7, 1, 0, 3,45.00,46.00,Sunday
7,15.8
19,23.326999749195362
2,1, 7, 1, 0, 3,46.00,47.00,Sunday
7,15.8
19,23.314381052875515
2,1, 7, 1, 0, 3,47.00,48.00,Sunday
7,15.8
19,23.301773966062665
2,1, 7, 1, 0, 3,48.00,49.00,Sunday
7,15.8
19,23.289178456206045
2,1, 7, 1, 0, 3,49.00,50.00,Sunday
7,15.8
19,23.276594491881795
2,1, 7, 1, 0, 3,50.00,51.00,Sunday
7,15.8
19,23.264022042588312
2,1, 7, 1, 0, 3,51.00,52.00,Sunday
7,15.8
19,23.25146107857714
2,1, 7, 1, 0, 3,52.00,53.00,Sunday
7,15.8
19,23.23891157071371
2,1, 7, 1, 0, 3,53.00,54.00,Sunday
7,15.8
19,23.226373490362842
2,1, 7, 1, 0, 3,54.00,55.00,Sunday
7,15.8
19,23.213846809294303
2,1, 7, 1, 0, 3,55.00,56.00,Sunday
7,15.8
19,23.201331499604912
2,1, 7, 1, 0, 3,56.00,57.00,Sunday
7,15.8
19,23.188827533654926
2,1, 7, 1, 0, 3,57.00,58.00,Sunday
7,15.8
19,23.17633488401507
2,1, 7, 1, 0, 3,58.00,59.00,Sunday
7,15.8
19,23.16385352342304
2,1, 7, 1, 0, 3,59.00,60.00,Sunday
7,15.8
19,23.151383424748204
2,1, 7, 1, 0, 3, 0.00,60.00,Sunday
8,17.77587348621786
9,17.831956018887947
10,17.77510006699446
11,17.832722702341933
12,36.43737064103587
13,15.485607006041233
14,15.470830079402415
15,17.560519534636054
16,17.60755617389986
17,17.559471861576124
18,17.608614964691903
2,1, 7, 1, 0, 4, 0.00, 1.00,Sunday
7,15.805
19,23.139156765722625
2,1, 7, 1, 0, 4, 1.00, 2.00,Sunday
7,15.81
19,23.127395265303175
2,1, 7, 1, 0, 4, 2.00, 3.00,Sunday
7,15.815
19,23.116164779660107
2,1, 7, 1, 0, 4, 3.00, 4.00,Sunday
7,15.820000000000002
19,23.1054205792181
2,1, 7, 1, 0, 4, 4.00, 5.00,Sunday
7,15.825000000000001
19,23.095081803730448
2,1, 7, 1, 0, 4, 5.00, 6.00,Sunday
7,15.830000000000002
19,23.085072369329886
2,1, 7, 1, 0, 4, 6.00, 7.00,Sunday
7,15.835
19,23.07533187521161
2,1, 7, 1, 0, 4, 7.00, 8.00,Sunday
7,15.840000000000002
19,23.06581360842765
2,1, 7, 1, 0, 4, 8.00, 9.00,Sunday
7,15.844999999999999
19,23.056480352745922
2,1, 7, 1, 0, 4, 9.00,10.00,Sunday
7,15.850000000000001
19,23.047301490964227
2,1, 7, 1, 0, 4,10.00,11.00,Sunday
7,15.855
19,23.038251470849758
2,1, 7, 1, 0, 4,11.00,12.00,Sunday
7,15.860000000000001
19,23.029308960200503
2,1, 7, 1, 0, 4,12.00,13.00,Sunday
7,15.865
19,23.02045623362548
2,1, 7, 1, 0, 4,13.00,14.00,Sunday
7,15.870000000000001
19,23.011798303623195
2,1, 7, 1, 0, 4,14.00,15.00,Sunday
7,15.875000000000002
19,23.003441740730818
2,1, 7, 1, 0, 4,15.00,16.00,Sunday
7,15.880000000000003
19,22.995410368556715
2,1, 7, 1, 0, 4,16.00,17.00,Sunday
7,15.885000000000002
19,22.98766967851473
2,1, 7, 1, 0, 4,17.00,18.00,Sunday
7,15.89
19,22.980167902229503
2,1, 7, 1, 0, 4,18.00,19.00,Sunday
7,15.895
19,22.972858232246274
2,1, 7, 1, 0, 4,19.00,20.00,Sunday
7,15.900000000000002
19,22.965704238339907
2,1, 7, 1, 0, 4,20.00,21.00,Sunday
7,15.905000000000001
19,22.95867818659625
2,1, 7, 1, 0, 4,21.00,22.00,Sunday
7,15.91
19,22.95175829937288
2,1, 7, 1, 0, 4,22.00,23.00,Sunday
7,15.915000000000003
19,22.94492688353224
2,1, 7, 1, 0, 4,23.00,24.00,Sunday
7,15.920000000000002
19,22.938169319959844
2,1, 7, 1, 0, 4,24.00,25.00,Sunday
7,15.925
19,22.931473498326422
2,1, 7, 1, 0, 4,25.00,26.00,Sunday
7,15.93
19,22.92482941652166
2,1, 7, 1, 0, 4,26.00,27.00,Sunday
7,15.935000000000002
19,22.91822883867044
2,1, 7, 1, 0, 4,27.00,28.00,Sunday
7,15.940000000000001
19,22.91166448427244
2,1, 7, 1, 0, 4,28.00,29.00,Sunday
7,15.945
19,22.905131006874672
2,1, 7, 1, 0, 4,29.00,30.00,Sunday
7,15.950000000000001
19,22.898623966830993
2,1, 7, 1, 0, 4,30.00,31.00,Sunday
7,15.955000000000002
19,22.89213993068429
2,1, 7, 1, 0, 4,31.00,32.00,Sunday
7,15.96
19,22.885675926347865
2,1, 7, 1, 0, 4,32.00,33.00,Sunday
7,15.965000000000002
19,22.879229373836814
2,1, 7, 1, 0, 4,33.00,34.00,Sunday
7,15.97
19,22.872798093000075
2,1, 7, 1, 0, 4,34.00,35.00,Sunday
7,15.975000000000001
19,22.86638027751537
2,1, 7, 1, 0, 4,35.00,36.00,Sunday
7,15.98
19,22.859974444488593
2,1, 7, 1, 0, 4,36.00,37.00,Sunday
7,15.985000000000001
19,22.85357937946138
2,1, 7, 1, 0, 4,37.00,38.00,Sunday
7,15.990000000000002
19,22.84719408754141
2,1, 7, 1, 0, 4,38.00,39.00,Sunday
7,15.995000000000001
19,22.84081775313876
2,1, 7, 1, 0, 4,39.00,40.00,Sunday
7,16.0
19,22.834449707324385
2,1, 7, 1, 0, 4,40.00,41.00,Sunday
7,16.005000000000003
19,22.82808940122678
2,1, 7, 1, 0, 4,41.00,42.00,Sunday
7,16.01
19,22.821736384211135
2,1, 7, 1, 0, 4,42.00,43.00,Sunday
7,16.015
19,22.815390285956557
2,1, 7, 1, 0, 4,43.00,44.00,Sunday
7,16.020000000000003
19,22.809050801765363
2,1, 7, 1, 0, 4,44.00,45.00,Sunday
7,16.025000000000002
19,22.802717680556167
2,1, 7, 1, 0, 4,45.00,46.00,Sunday
7,16.03
19,22.79639071506755
2,1, 7, 1, 0, 4,46.00,47.00,Sunday
7,16.035000000000004
19,22.79006973387108
2,1, 7, 1, 0, 4,47.00,48.00,Sunday
7,16.040000000000003
19,22.783754594858625
2,1, 7, 1, 0, 4,48.00,49.00,Sunday
7,16.045
19,22.777445179928797
2,1, 7, 1, 0, 4,49.00,50.00,Sunday
7,16.05
19,22.77114139064727
2,1, 7, 1, 0, 4,50.00,51.00,Sunday
7,16.055
19,22.764843144700656
2,1, 7, 1, 0, 4,51.00,52.00,Sunday
7,16.060000000000002
19,22.75855037299712
2,1, 7, 1, 0, 4,52.00,53.00,Sunday
7,16.065
19,22.752263017293124
2,1, 7, 1, 0, 4,53.00,54.00,Sunday
7,16.07
19,22.74598102825013
2,1, 7, 1, 0, 4,54.00,55.00,Sunday
7,16.075000000000003
19,22.739704363842034
2,1, 7, 1, 0, 4,55.00,56.00,Sunday
7,16.080000000000002
19,22.73343298805003
2,1, 7, 1, 0, 4,56.00,57.00,Sunday
7,16.085
19,22.72716686979144
2,1, 7, 1, 0, 4,57.00,58.00,Sunday
7,16.09
19,22.720905982040705
2,1, 7, 1, 0, 4,58.00,59.00,Sunday
7,16.095000000000002
19,22.71465030110797
2,1, 7, 1, 0, 4,59.00,60.00,Sunday
7,16.1
19,22.708399806046575
2,1, 7, 1, 0, 4, 0.00,60.00,Sunday
8,17.474944942552206
9,17.514011315310444
10,17.493254961231774
11,17.495638721667635
12,35.252247159153235
13,15.187192935309469
14,15.179260828097817
15,17.296477220917996
16,17.328442628439568
17,17.31251787856496
18,17.312414814986457
2,1, 7, 1, 0, 5, 0.00, 1.00,Sunday
7,16.113333333333333
19,22.702522915673335
2,1, 7, 1, 0, 5, 1.00, 2.00,Sunday
7,16.12666666666667
19,22.69737795509922
2,1, 7, 1, 0, 5, 2.00, 3.00,Sunday
7,16.14
19,22.69307733954153
2,1, 7, 1, 0, 5, 3.00, 4.00,Sunday
7,16.153333333333336
19,22.689553758734927
2,1, 7, 1, 0, 5, 4.00, 5.00,Sunday
7,16.166666666666668
19,22.686678389125113
2,1, 7, 1, 0, 5, 5.00, 6.00,Sunday
7,16.180000000000003
19,22.684328021983575
2,1, 7, 1, 0, 5, 6.00, 7.00,Sunday
7,16.193333333333335
19,22.682404064753552
2,1, 7, 1, 0, 5, 7.00, 8.00,Sunday
7,16.206666666666667
19,22.68083006140236
2,1, 7, 1, 0, 5, 8.00, 9.00,Sunday
7,16.22
19,22.679545122832366
2,1, 7, 1, 0, 5, 9.00,10.00,Sunday
7,16.233333333333334
19,22.678499215006823
2,1, 7, 1, 0, 5,10.00,11.00,Sunday
7,16.246666666666666
19,22.677650611213817
2,1, 7, 1, 0, 5,11.00,12.00,Sunday
7,16.26
19,22.676964481528426
2,1, 7, 1, 0, 5,12.00,13.00,Sunday
7,16.273333333333333
19,22.676411881090086
2,1, 7, 1, 0, 5,13.00,14.00,Sunday
7,16.286666666666665
19,22.675968858298095
2,1, 7, 1, 0, 5,14.00,15.00,Sunday
7,16.3
19,22.67561564225961
2,1, 7, 1, 0, 5,15.00,16.00,Sunday
7,16.313333333333333
19,22.675335929132743
2,1, 7, 1, 0, 5,16.00,17.00,Sunday
7,16.326666666666668
19,22.675116277906373
2,1, 7, 1, 0, 5,17.00,18.00,Sunday
7,16.34
19,22.674945608919593
2,1, 7, 1, 0, 5,18.00,19.00,Sunday
7,16.353333333333335
19,22.67481479028211
2,1, 7, 1, 0, 5,19.00,20.00,Sunday
7,16.366666666666667
19,22.674716296774804
2,1, 7, 1, 0, 5,20.00,21.00,Sunday
7,16.380000000000003
19,22.674643928172145
2,1, 7, 1, 0, 5,21.00,22.00,Sunday
7,16.39333333333333
19,22.674592576528827
2,1, 7, 1, 0, 5,22.00,23.00,Sunday
7,16.406666666666666
19,22.67455803400196
2,1, 7, 1, 0, 5,23.00,24.00,Sunday
7,16.42
19,22.674536834274317
2,1, 7, 1, 0, 5,24.00,25.00,Sunday
7,16.43333333333333
19,22.67452612180032
2,1, 7, 1, 0, 5,25.00,26.00,Sunday
7,16.446666666666665
19,22.674523544048974
2,1, 7, 1, 0, 5,26.00,27.00,Sunday
7,16.46
19,22.674527162729003
2,1, 7, 1, 0, 5,27.00,28.00,Sunday
7,16.473333333333333
19,22.674535380666466
2,1, 7, 1, 0, 5,28.00,29.00,Sunday
7,16.486666666666665
19,22.67454688158344
2,1, 7, 1, 0, 5,29.00,30.00,Sunday
7,16.5
19,22.674560580505727
2,1, 7, 1, 0, 5,30.00,31.00,Sunday
7,16.513333333333335
19,22.674575582927137
2,1, 7, 1, 0, 5,31.00,32.00,Sunday
7,16.526666666666667
19,22.67459115118559
2,1, 7, 1, 0, 5,32.00,33.00,Sunday
7,16.54
19,22.674606676778097
2,1, 7, 1, 0, 5,33.00,34.00,Sunday
7,16.553333333333335
19,22.674621657565158
2,1, 7, 1, 0, 5,34.00,35.00,Sunday
7,16.566666666666666
19,22.674635679001643
2,1, 7, 1, 0, 5,35.00,36.00,Sunday
7,16.58
19,22.674759567110133
2,1, 7, 1, 0, 5,36.00,37.00,Sunday
7,16.593333333333334
19,22.675103292607943
2,1, 7, 1, 0, 5,37.00,38.00,Sunday
7,16.606666666666666
19,22.675698572105873
2,1, 7, 1, 0, 5,38.00,39.00,Sunday
7,16.619999999999997
19,22.67652161950787
2,1, 7, 1, 0, 5,39.00,40.00,Sunday
7,16.633333333333333
19,22.677531144721634
2,1, 7, 1, 0, 5,40.00,41.00,Sunday
7,16.646666666666665
19,22.67868909323788
2,1, 7, 1, 0, 5,41.00,42.00,Sunday
7,16.66
19,22.6799659348049
2,1, 7, 1, 0, 5,42.00,43.00,Sunday
7,16.673333333333332
19,22.68133936163571
2,1, 7, 1, 0, 5,43.00,44.00,Sunday
7,16.686666666666667
19,22.682791939933804
2,1, 7, 1, 0, 5,44.00,45.00,Sunday
7,16.7
19,22.684309507823492
2,1, 7, 1, 0, 5,45.00,46.00,Sunday
7,16.713333333333335
19,22.685880335036096
2,1, 7, 1, 0, 5,46.00,47.00,Sunday
7,16.726666666666667
19,22.68749467463872
2,1, 7, 1, 0, 5,47.00,48.00,Sunday
7,16.74
19,22.689144454216024
2,1, 7, 1, 0, 5,48.00,49.00,Sunday
7,16.753333333333334
19,22.6908230109338
2,1, 7, 1, 0, 5,49.00,50.00,Sunday
7,16.766666666666666
19,22.692524854234982
2,1, 7, 1, 0, 5,50.00,51.00,Sunday
7,16.779999999999998
19,22.694245460282655
2,1, 7, 1, 0, 5,51.00,52.00,Sunday
7,16.793333333333333
19,22.695981100084357
2,1, 7, 1, 0, 5,52.00,53.00,Sunday
7,16.806666666666665
19,22.69772869836758
2,1, 7, 1, 0, 5,53.00,54.00,Sunday
7,16.82
19,22.699485718166475
2,1, 7, 1, 0, 5,54.00,55.00,Sunday
7,16.833333333333332
19,22.701250066201318
2,1, 7, 1, 0, 5,55.00,56.00,Sunday
7,16.846666666666664
19,22.7030200150481
2,1, 7, 1, 0, 5,56.00,57.00,Sunday
7,16.859999999999996
19,22.71908064701273
2,1, 7, 1, 0, 5,57.00,58.00,Sunday
7,16.87333333333333
19,22.79361291301563
2,1, 7, 1, 0, 5,58.00,59.00,Sunday
7,16.886666666666667
19,22.919255755544334
2,1, 7, 1, 0, 5,59.00,60.00,Sunday
7,16.9
19,23.060707157520188
2,1, 7, 1, 0, 5, 0.00,60.00,Sunday
8,17.683341732502676
9,17.70012767534213
10,17.71942510821116
11,17.6703720123643
12,34.39621980283894
13,15.394853622659916
14,15.399006879705407
15,17.541310579342966
16,17.557043942861828
17,17.57031674340147
18,17.532054821601104
2,1, 7, 1, 0, 6, 0.00, 1.00,Sunday
7,16.924999999999997
19,23.195276805638514
2,1, 7, 1, 0, 6, 1.00, 2.00,Sunday
7,16.95
19,23.31488684245427
2,1, 7, 1, 0, 6, 2.00, 3.00,Sunday
7,16.974999999999994
19,23.41988472714855
2,1, 7, 1, 0, 6, 3.00, 4.00,Sunday
7,17.0
19,23.513122111972592
2,1, 7, 1, 0, 6, 4.00, 5.00,Sunday
7,17.025
19,23.59725100483694
2,1, 7, 1, 0, 6, 5.00, 6.00,Sunday
7,17.049999999999997
19,23.67415565989904
2,1, 7, 1, 0, 6, 6.00, 7.00,Sunday
7,17.074999999999996
19,23.74514545464165
2,1, 7, 1, 0, 6, 7.00, 8.00,Sunday
7,17.1
19,23.811211985522082
2,1, 7, 1, 0, 6, 8.00, 9.00,Sunday
7,17.125
19,23.87317198203065
2,1, 7, 1, 0, 6, 9.00,10.00,Sunday
7,17.15
19,23.931720936389034
2,1, 7, 1, 0, 6,10.00,11.00,Sunday
7,17.174999999999997
19,23.987450185257746
2,1, 7, 1, 0, 6,11.00,12.00,Sunday
7,17.2
19,24.04085681331914
2,1, 7, 1, 0, 6,12.00,13.00,Sunday
7,17.224999999999998
19,24.092354926485257
2,1, 7, 1, 0, 6,13.00,14.00,Sunday
7,17.25
19,24.14228805979047
2,1, 7, 1, 0, 6,14.00,15.00,Sunday
7,17.275
19,24.190940899373448
2,1, 7, 1, 0, 6,15.00,16.00,Sunday
7,17.299999999999997
19,24.238549382467102
2,1, 7, 1, 0, 6,16.00,17.00,Sunday
7,17.325
19,24.285309114185534
2,1, 7, 1, 0, 6,17.00,18.00,Sunday
7,17.349999999999998
19,24.331382249856535
2,1, 7, 1, 0, 6,18.00,19.00,Sunday
7,17.375
19,24.37690317898926
2,1, 7, 1, 0, 6,19.00,20.00,Sunday
7,17.4
19,24.421983273444727
2,1, 7, 1, 0, 6,20.00,21.00,Sunday
7,17.424999999999997
19,24.466714818831615
2,1, 7, 1, 0, 6,21.00,22.00,Sunday
7,17.449999999999996
19,24.51117426855851
2,1, 7, 1, 0, 6,22.00,23.00,Sunday
7,17.475
19,24.5554249272509
2,1, 7, 1, 0, 6,23.00,24.00,Sunday
7,17.5
19,24.59951918132829
2,1, 7, 1, 0, 6,24.00,25.00,Sunday
7,17.525
19,24.64350040230902
2,1, 7, 1, 0, 6,25.00,26.00,Sunday
7,17.549999999999997
19,24.687404533551387
2,1, 7, 1, 0, 6,26.00,27.00,Sunday
7,17.575
19,24.73126141601993
2,1, 7, 1, 0, 6,27.00,28.00,Sunday
7,17.599999999999998
19,24.775095844037324
2,1, 7, 1, 0, 6,28.00,29.00,Sunday
7,17.625
19,24.81892844392871
2,1, 7, 1, 0, 6,29.00,30.00,Sunday
7,17.65
19,24.86230597203453
2,1, 7, 1, 0, 6,30.00,31.00,Sunday
7,17.674999999999997
19,24.9045099547242
2,1, 7, 1, 0, 6,31.00,32.00,Sunday
7,17.7
19,24.94519843924344
2,1, 7, 1, 0, 6,32.00,33.00,Sunday
7,17.724999999999998
19,24.98447202331632
2,1, 7, 1, 0, 6,33.00,34.00,Sunday
7,17.75
19,25.0226259976127
2,1, 7, 1, 0, 6,34.00,35.00,Sunday
7,17.775
19,25.059961052019116
2,1, 7, 1, 0, 6,35.00,36.00,Sunday
7,17.799999999999997
19,25.096722615087703
2,1, 7, 1, 0, 6,36.00,37.00,Sunday
7,17.825
19,25.13309773043041
2,1, 7, 1, 0, 6,37.00,38.00,Sunday
7,17.849999999999998
19,25.169229251069307
2,1, 7, 1, 0, 6,38.00,39.00,Sunday
7,17.875
19,25.205228650277185
2,1, 7, 1, 0, 6,39.00,40.00,Sunday
7,17.9
19,25.24118419088039
2,1, 7, 1, 0, 6,40.00,41.00,Sunday
7,17.924999999999997
19,25.277165658951958
2,1, 7, 1, 0, 6,41.00,42.00,Sunday
7,17.95
19,25.313227713841233
2,1, 7, 1, 0, 6,42.00,43.00,Sunday
7,17.974999999999998
19,25.349412535012696
2,1, 7, 1, 0, 6,43.00,44.00,Sunday
7,17.999999999999996
19,25.385752118575265
2,1, 7, 1, 0, 6,44.00,45.00,Sunday
7,18.025
19,25.422270288413163
2,1, 7, 1, 0, 6,45.00,46.00,Sunday
7,18.05
19,25.458984325811304
2,1, 7, 1, 0, 6,46.00,47.00,Sunday
7,18.075
19,25.49590627983183
2,1, 7, 1, 0, 6,47.00,48.00,Sunday
7,18.099999999999998
19,25.533044137770577
2,1, 7, 1, 0, 6,48.00,49.00,Sunday
7,18.125
19,25.570402657475753
2,1, 7, 1, 0, 6,49.00,50.00,Sunday
7,18.15
19,25.607984121703808
2,1, 7, 1, 0, 6,50.00,51.00,Sunday
7,18.174999999999997
19,25.645788854832723
2,1, 7, 1, 0, 6,51.00,52.00,Sunday
7,18.2
19,25.68381570722006
2,1, 7, 1, 0, 6,52.00,53.00,Sunday
7,18.224999999999998
19,25.722062424350096
2,1, 7, 1, 0, 6,53.00,54.00,Sunday
7,18.25
19,25.760525957975947
2,1, 7, 1, 0, 6,54.00,55.00,Sunday
7,18.275
19,25.79910810837966
2,1, 7, 1, 0, 6,55.00,56.00,Sunday
7,18.299999999999997
19,25.837809969355426
2,1, 7, 1, 0, 6,56.00,57.00,Sunday
7,18.324999999999996
19,25.87668626945093
2,1, 7, 1, 0, 6,57.00,58.00,Sunday
7,18.349999999999998
19,25.91672056014268
2,1, 7, 1, 0, 6,58.00,59.00,Sunday
7,18.374999999999996
19,25.95892346020024
2,1, 7, 1, 0, 6,59.00,60.00,Sunday
7,18.4
19,26.003543529567196
2,1, 7, 1, 0, 6, 0.00,60.00,Sunday
8,20.39932086446248
9,19.893150792058478
10,20.959206023215987
11,19.843360721041222
12,36.69050058726421
13,17.98062319738191
14,17.653275454546435
15,19.682205566415448
16,19.517740280273596
17,19.886972066281487
18,19.4787520648189
2,1, 7, 1, 0, 7, 0.00, 1.00,Sunday
7,18.38333333333333
19,26.048065733621485
2,1, 7, 1, 0, 7, 1.00, 2.00,Sunday
7,18.366666666666664
19,26.090723988907353
2,1, 7, 1, 0, 7, 2.00, 3.00,Sunday
7,18.349999999999998
19,26.130779268515344
2,1, 7, 1, 0, 7, 3.00, 4.00,Sunday
7,18.333333333333332
19,26.168514119278754
2,1, 7, 1, 0, 7, 4.00, 5.00,Sunday
7,18.316666666666663
19,26.20457590189346
2,1, 7, 1, 0, 7, 5.00, 6.00,Sunday
7,18.299999999999997
19,26.239292624594928
2,1, 7, 1, 0, 7, 6.00, 7.00,Sunday
7,18.28333333333333
19,26.272907010205408
2,1, 7, 1, 0, 7, 7.00, 8.00,Sunday
7,18.266666666666666
19,26.305604800000243
2,1, 7, 1, 0, 7, 8.00, 9.00,Sunday
7,18.25
19,26.33754507945682
2,1, 7, 1, 0, 7, 9.00,10.00,Sunday
7,18.23333333333333
19,26.368868793242534
2,1, 7, 1, 0, 7,10.00,11.00,Sunday
7,18.216666666666665
19,26.39969851615566
2,1, 7, 1, 0, 7,11.00,12.00,Sunday
7,18.2
19,26.4301379727944
2,1, 7, 1, 0, 7,12.00,13.00,Sunday
7,18.183333333333334
19,26.46027343590996
2,1, 7, 1, 0, 7,13.00,14.00,Sunday
7,18.166666666666664
19,26.490175954472107
2,1, 7, 1, 0, 7,14.00,15.00,Sunday
7,18.15
19,26.519903945559943