Program Version,EnergyPlus, Version 25.1.0-1c11a3d85f, YMD=2026.04.10 15:40
1,5,Environment Title[],Latitude[deg],Longitude[deg],Time Zone[],Elevation[m]
2,8,Day of Simulation[],Month[],Day of Month[],DST Indicator[1=yes 0=no],Hour[],StartMinute[],EndMinute[],DayType
3,5,Cumulative Day of Simulation[],Month[],Day of Month[],DST Indicator[1=yes 0=no],DayType  ! When Daily Report Variables Requested
4,2,Cumulative Days of Simulation[],Month[]  ! When Monthly Report Variables Requested
5,1,Cumulative Days of Simulation[] ! When Run Period Report Variables Requested
6,1,Calendar Year of Simulation[] ! When Annual Report Variables Requested
7,1,Environment,Site Outdoor Air Drybulb Temperature [C] !TimeStep
8,1,PI_HEATER,Other Equipment Convective Heating Rate [W] !TimeStep
9,1,EMS,EMS Heating Power [W] !TimeStep
10,1,WALL_EAST,Surface Inside Face Temperature [C] !TimeStep
11,1,WALL_EAST,Surface Outside Face Temperature [C] !TimeStep
12,1,WALL_WEST,Surface Inside Face Temperature [C] !TimeStep
13,1,WALL_WEST,Surface Outside Face Temperature [C] !TimeStep
14,1,WALL_SOUTH,Surface Inside Face Temperature [C] !TimeStep
15,1,WALL_SOUTH,Surface Outside Face Temperature [C] !TimeStep
16,1,WALL_NORTH,Surface Inside Face Temperature [C] !TimeStep
17,1,WALL_NORTH,Surface Outside Face Temperature [C] !TimeStep
18,1,FLOOR,Surface Inside Face Temperature [C] !TimeStep
19,1,FLOOR,Surface Outside Face Temperature [C] !TimeStep
20,1,ROOF_SOUTH,Surface Inside Face Temperature [C] !TimeStep
21,1,ROOF_SOUTH,Surface Outside Face Temperature [C] !TimeStep
22,1,ROOF_NORTH,Surface Inside Face Temperature [C] !TimeStep
23,1,ROOF_NORTH,Surface Outside Face Temperature [C] !TimeStep
24,1,GREENHOUSE,Zone Mean Air Temperature [C] !TimeStep
End of Data Dictionary
1,RUN1,  50.90,   4.53,   1.00,  58.00
2,1,12,10, 0, 1, 0.00, 1.00,Sunday
7,7.456666666666667
8,2577.5608402614016
9,2575.7572436087603
10,8.988545988760388
11,8.962428894523317
12,9.031582221705658
13,9.005838493767978
14,9.176010928877194
15,9.151495533883423
16,9.180319484899696
17,9.155839491043446
18,10.87240376975009
19,10.7
20,7.880022179346885
21,7.8406781731741395
22,7.986911284275397
23,7.949228377946081
24,18.083762761060424
2,1,12,10, 0, 1, 1.00, 2.00,Sunday
7,7.413333333333333
8,2575.7572436087603
9,2574.124622049999
10,8.97692610219185
11,8.950632099435062
12,9.020342402917779
13,8.994423220746102
14,9.164821084988096
15,9.140136467591853
16,9.169126842910478
17,9.14447762922225
18,10.87100456024162
19,10.7
20,7.868370836780225
21,7.8288349842318645
22,7.975176276760791
23,7.9373021797568315
24,18.081507478557917
2,1,12,10, 0, 1, 2.00, 3.00,Sunday
7,7.37
8,2574.124622049999
9,2572.945528979342
10,8.960392124010506
11,8.933944468831783
12,9.004063912712885
13,8.977991120024045
14,9.148775370392855
15,9.123943089539846
16,9.153079196628074
17,9.128282322502553
18,10.868733737512429
19,10.7
20,7.851599194395978
21,7.811896485476626
22,7.958320653197864
23,7.92028044042729
24,18.076354009514844
2,1,12,10, 0, 1, 3.00, 4.00,Sunday
7,7.326666666666666
8,2572.945528979342
9,2572.4491425976594
10,8.940283467206447
11,8.913696900807992
12,8.984089083266001
13,8.95787644132262
14,9.129147356803513
15,9.104181216278004
16,9.133449848725189
17,9.108519118036524
18,10.865816379096383
19,10.7
20,7.831189769112275
21,7.791336244318093
22,7.937823423321845
23,7.899633285483775
24,18.068072620304864
2,1,12,10, 0, 1, 4.00, 5.00,Sunday
7,7.283333333333333
8,2572.4491425976594
9,2572.743968033558
10,8.917499429260166
11,8.89078847317457
12,8.961329854257597
13,8.934991173173863
14,9.106806947844284
15,9.081720751514396
16,9.111108532972843
17,9.086057749474337
18,10.862330578520229
19,10.7
20,7.808099860666104
21,7.768111209261345
22,7.91464272304062
23,7.876318380771547
24,18.056946797840585
2,1,12,10, 0, 1, 5.00, 6.00,Sunday
7,7.24
8,2572.743968033558
9,2573.8301965696023
10,8.892677140075136
11,8.865853726085865
12,8.936438732111622
13,8.909985408041722
14,9.082380832344013
15,9.05718599986508
16,9.086681825430638
17,9.06152240862215
18,10.858384360476753
19,10.7
20,7.7829875874035235
21,7.742876705227241
22,7.889438306677785
23,7.8509926614158845
24,18.043529965998665
2,1,12,10, 0, 1, 6.00, 7.00,Sunday
7,7.196666666666667
8,2573.8301965696023
9,2575.6429636180123
10,8.866294442646614
11,8.839367952427061
12,8.909908626887521
13,8.88334962913596
14,9.056345987648337
15,9.031051529391341
16,9.060646623890277
17,9.035387584032339
18,10.854079442625913
19,10.7
20,7.756337457515224
21,7.71611446939554
22,7.862695839412718
23,7.824139014072456
24,18.028437181619285
2,1,12,10, 0, 1, 7.00, 8.00,Sunday
7,7.153333333333333
8,2575.6429636180123
9,2578.092776861503
10,8.838724982415219
11,8.811702475802472
12,8.882126744411062
13,8.855468811267565
14,9.029079768647483
15,9.003692474580092
16,9.033380224223121
17,9.008028351246441
18,10.8495066433435
19,10.7
20,7.728524853621442
21,7.688197350094941
22,7.834791180406751
23,7.796130765123358
24,18.01222415099148
2,1,12,10, 0, 1, 8.00, 9.00,Sunday
7,7.11
8,2578.092776861503
9,2581.0908999672347
10,8.810266866030675
11,8.783153438225876
12,8.85340287594928
13,8.826650849662714
14,9.00088590558182
15,8.975410675946504
16,9.00518631156516
17,8.979746505744375
18,10.844742390668019
19,10.7
20,7.699847989042017
21,7.659421413038231
22,7.80602252613585
23,7.767263967836684
24,17.99534195618101
2,1,12,10, 0, 1, 9.00,10.00,Sunday
7,7.066666666666666
8,2581.0908999672347
9,2584.560499805708
10,8.781158416724955
11,8.7539579504355
12,8.823985142661089
13,8.79714270504992
14,8.97200886544908
15,8.94644942673296
16,8.97630931804607
17,8.950785305952932
18,10.839568586942375
19,10.7
20,7.670544607933697
21,7.630023054048668
22,7.776627361854573
23,7.737774752526232
24,17.97813336775329
2,1,12,10, 0, 1,10.00,11.00,Sunday
7,7.023333333333333
8,2584.560499805708
9,2588.4395501361864
10,8.751582573691136
11,8.724297197976227
12,8.794064464724661
13,8.767133581384389
14,8.94263773240856
15,8.916996123389586
16,8.946938300941687
17,8.921332121475931
18,10.834316088326322
19,10.7
20,7.640796605053889
21,7.600182290716334
22,7.746787436705751
23,7.707843011604285
24,17.960854173204964
2,1,12,10, 0, 1,11.00,12.00,Sunday
7,6.98
8,2588.4395501361864
9,2592.6783055817527
10,8.721691678316404
11,8.694322770793406
12,8.76379967427793
13,8.736781589461506
14,8.9129300015726
15,8.88720753139833
16,8.917230734628381
17,8.891543697079847
18,10.829017572753656
19,10.7
20,7.610755164818037
21,7.570049480111387
22,7.716653512143321
23,7.677618675041209
24,17.943695963080984
2,1,12,10, 0, 1,12.00,13.00,Sunday
7,6.9366666666666665
8,2592.6783055817527
9,2597.236028344929
10,8.691605101295368
11,8.664153318080682
12,8.733315331214447
13,8.706210589712247
14,8.883009557771691
15,8.85720683761028
16,8.887310487988096
17,8.86154320367845
18,10.823701632694181
19,10.7
20,7.580538285044625
21,7.5397418391370135
22,7.686343257389068
23,7.647218632758162
24,17.926802726294216
2,1,12,10, 0, 1,13.00,14.00,Sunday
7,6.8933333333333335
8,2597.236028344929
9,2602.0786211763984
10,8.66141606729604
11,8.633881515794863
12,8.702708751752343
13,8.675517365720905
14,8.852973448041096
15,8.827090557610667
16,8.857274595801671
17,8.831427144608545
18,10.81839015421487
19,10.7
20,7.550237790203633
21,7.509350600091495
22,7.655948248086237
23,7.616733869218533
24,17.910282192910252
2,1,12,10, 0, 1,14.00,15.00,Sunday
7,6.85
8,2602.0786211763984
9,2607.1770839949863
10,8.63119713119009
11,8.603579501852547
12,8.672055676163268
13,8.644777252373826
14,8.822897388069336
15,8.796934002833686
16,8.827198764353604
17,8.801270821902795
18,10.813099867946002
19,10.7
20,7.519924912654103
21,7.47894654680487
22,7.6255395330296905
23,7.5862349852878515
24,17.894213678421934
2,1,12,10, 0, 1,15.00,16.00,Sunday
7,6.806666666666667
8,2607.1770839949863
9,2612.506513324211
10,8.601004518724372
11,8.573303188564546
12,8.641414779054431
13,8.614048618994136
14,8.792840170480707
15,8.766795661739563
16,8.797141779072872
17,8.77113271682607
18,10.807843447857747
19,10.7
20,7.489654677422029
21,7.448584368434548
22,7.595172006520388
23,7.555776539688158
24,17.878653853159587
2,1,12,10, 0, 1,16.00,17.00,Sunday
7,6.763333333333334
8,2612.506513324211
9,2618.0454013134886
10,8.570881532812123
11,8.543095647455393
12,8.610831220261897
13,8.583376399578883
14,8.762847151775098
15,8.736720666105533
16,8.767148990985776
17,8.741057955680064
18,10.802630350421936
19,10.7
20,7.459469315637426
21,7.4183060494527195
22,7.564887812025507
23,7.525400429263681
24,17.863641281699348
2,1,12,10, 0, 1,17.00,18.00,Sunday
7,6.72
8,2618.0454013134886
9,2623.7750899715497
10,8.540861227744104
11,8.512989766608923
12,8.580339439301044
13,8.552794870999811
14,8.732953006985682
15,8.706743529425198
16,8.737255071001533
17,8.711081047830978
18,10.797467474028522
19,10.7
20,7.429400928268478
21,7.388143515002253
22,7.534718998127203
23,7.495138526596853
24,17.84920014196931
2,1,12,10, 0, 1,18.00,19.00,Sunday
7,6.676666666666667
8,2623.7750899715497
9,2629.6793150781714
10,8.510968520908985
11,8.483010348836617
12,8.549965365457085
13,8.522329850012586
14,8.703183915230818
15,8.676890319365466
16,8.707486195176685
17,8.68122805787937
18,10.792359687956088
19,10.7
20,7.399473581792452
21,7.358120711806575
22,7.504689607718561
23,7.465014754485235
24,17.835343302603707
2,1,12,10, 0, 1,19.00,20.00,Sunday
7,6.633333333333335
8,2629.6793150781714
9,2635.743816899217
10,8.481221871677699
11,8.453175779582589
12,8.519728176304609
13,8.492000441160656
14,8.673559303313326
15,8.647180390736583
16,8.677861788088894
17,8.651518338404976
18,10.787310260206578
19,10.7
20,7.369704971362159
21,7.328255259373122
22,7.474817335609048
23,7.435046731622546
24,17.822074848434614
2,1,12,10, 0, 1,20.00,21.00,Sunday
7,6.59
8,2635.743816899217
9,2641.956010764344
10,8.451634622904596
11,8.423499359546572
12,8.48964170322783
13,8.46182043370033
14,8.644093242399098
15,8.617627773564074
16,8.648395919337238
17,8.621965917860603
18,10.782321203247413
19,10.7
20,7.3401077489772915
21,7.298559768487182
22,7.445114851886314
23,7.4052470863169315
24,17.809392124220203
2,1,12,10, 0, 1,21.00,22.00,Sunday
7,6.546666666666667
8,2641.956010764344
9,2648.304713122822
10,8.422216075500312
11,8.393990372122763
12,8.4597155572015
13,8.431799420468485
14,8.614795568808669
15,8.588242286958295
16,8.619098424192417
17,8.592580614300525
18,10.777393551992882
19,10.7
20,7.310690587304279
21,7.269042897254681
22,7.41559086162357
23,7.375624508449588
24,17.79728736765918
2,1,12,10, 0, 1,22.00,23.00,Sunday
7,6.503333333333334
8,2648.304713122822
9,2654.779917081843
10,8.392972349478907
11,8.36465493875243
12,8.42995603063735
13,8.40194369420679
14,8.58567278331476
15,8.5590304328836
16,8.589975802781339
17,8.563368929036843
18,10.772527586024832
19,10.7
20,7.281459032095867
21,7.239710197315547
22,7.386250953850756
23,7.346184592262538
24,17.785749002956948
2,1,12,10, 0, 1,23.00,24.00,Sunday
7,6.46
8,2654.779917081843
9,2661.3726099631504
10,8.363907073265146
11,8.33549670370888
12,8.400366819084324
13,8.372256964873827
14,8.556728771829075
15,8.529996112453128
16,8.561031940684021
17,8.534334762844482
18,10.7677230064309
19,10.7
20,7.252416184483822
21,7.210564791210416
22,7.357098281011605
23,7.316930510907522
24,17.774762660643297
2,1,12,10, 0, 1,24.00,25.00,Sunday
7,6.416666666666666
8,2661.3726099631504
9,2668.0746252130143
10,8.335021934723455
11,8.306517381546582
12,8.370949597892569
13,8.342740932833504
14,8.527965382001415
15,8.501141199050327
16,8.532268685461048
17,8.505479989011171
18,10.762979076101209
19,10.7
20,7.223563246216294
21,7.181607913721535
22,7.328134101907698
23,7.28786355550734
24,17.764311979765253
2,1,12,10, 0, 1,25.00,26.00,Sunday
7,6.373333333333333
8,2668.0746252130143
9,2674.878521793318
10,8.306317120993342
11,8.27771719410849
12,8.34170448227037
13,8.31339574616458
14,8.49938288377873
15,8.4724659961401
16,8.503686307155723
17,8.476804911091724
18,10.758294730823945
19,10.7
20,7.194899954661809
21,7.152839343800997
22,7.299358214870861
23,7.258983565263019
24,17.75437923797245
2,1,12,10, 0, 1,26.00,27.00,Sunday
7,6.33
8,2674.878521793318
9,2681.7774853924298
10,8.277791669078153
11,8.249095218884007
12,8.312630393772514
13,8.28422036498046
14,8.470980336714996
15,8.443969602410732
16,8.475283865558653
17,8.44830862800475
18,10.753668667123724
19,10.7
20,7.166424929350697
21,7.1242577486883
22,7.270769302855319
23,7.230289270130038
24,17.744945845396217
2,1,12,10, 0, 1,27.00,28.00,Sunday
7,6.286666666666667
8,2681.7774853924298
9,2688.7652469997524
10,8.249443744911408
11,8.220649666319089
12,8.283725351824433
13,8.255212851244844
14,8.442755882477192
15,8.415650202572875
16,8.447059502677863
17,8.41998932479578
18,10.749099411585684
19,10.7
20,7.138135947644407
21,7.09586095767333
22,7.242365207969148
23,7.20177856344944
24,17.73599273039449
2,1,12,10, 0, 1,28.00,29.00,Sunday
7,6.243333333333333
8,2688.7652469997524
9,2695.836015392208
10,8.221270865150338
11,8.192378100231073
12,8.254986705241416
13,8.226370598948632
14,8.414706977406079
15,8.38750529858004
16,8.419010675270627
17,8.39184450382885
18,10.744585375429095
19,10.7
20,7.11003016367529
21,7.067646179541304
22,7.214143149527228
23,7.173448718510377
24,17.72750063919143
2,1,12,10, 0, 1,29.00,30.00,Sunday
7,6.2
8,2695.836015392208
9,2702.9844208489912
10,8.19327007312024
11,8.164277612675017
12,8.226411315732559
13,8.197690516563405
14,8.386830577058848
15,8.359531893123169
16,8.391134339364115
17,8.363871168259092
18,10.740124897313343
19,10.7
20,7.082104281885378
21,7.03961017494439
22,7.18609989690441
23,7.145296560239309
24,17.719450366847106
2,1,12,10, 0, 1,30.00,31.00,Sunday
7,6.156666666666666
8,2702.9844208489912
9,2710.205467980914
10,8.16543807805173
11,8.136344962342651
12,8.197995702985356
13,8.169169171308294
14,8.35912328229327
15,8.331726634899717
16,8.363427096321224
17,8.336065967283496
18,10.735716276750576
19,10.7
20,7.054354694225291
21,7.011749392694525
22,7.158231906210898
23,7.117318600971551
24,17.711822933469666
2,1,12,10, 0, 1,31.00,32.00,Sunday
7,6.113333333333333
8,2710.205467980914
9,2717.4944959870086
10,8.13777136492945
11,8.108576683763875
12,8.169736159009084
13,8.140802902861312
14,8.331581454551024
15,8.304085933267617
16,8.335885308110134
17,8.308425310781107
18,10.731357800022327
19,10.7
20,7.026777588262899
21,6.98406007717406
22,7.130535428006161
23,7.089511147468631
24,17.704599716827442
2,1,12,10, 0, 1,32.00,33.00,Sunday
7,6.07
8,2717.4944959870086
9,2724.8471449789045
10,8.110264632907036
11,8.080969173132162
12,8.141627189977394
13,8.112587912625836
14,8.304199735443538
15,8.276606048383968
16,8.30850361687873
17,8.280945459440641
18,10.72578749148216
19,10.7
20,6.999367339855276
21,6.956538352626096
22,7.103004949038775
23,7.061870384917945
24,17.69774791321493
2,1,12,10, 0, 1,33.00,34.00,Sunday
7,6.026666666666667
8,2724.8471449789045
9,2732.2625474371084
10,8.082881197517553
11,8.053483422847384
12,8.113631729411397
13,8.084484804268007
14,8.276942459010014
15,8.249249100416437
16,8.281246357653112
17,8.253588534421944
18,10.720277988523614
19,10.7
20,6.972086673828118
21,6.9291445669574205
22,7.075604179916488
23,7.034357723671611
24,17.69123575340016
2,1,12,10, 0, 1,34.00,35.00,Sunday
7,5.983333333333333
8,2732.2625474371084
9,2739.7402643320593
10,8.055625825343888
11,8.02612510554283
12,8.085754312541171
13,8.056499019552264
14,8.249813525891971
15,8.222019853077027
16,8.254117431965872
17,8.226359300319452
18,10.714807917658376
19,10.7
20,6.9449405353052365
21,6.9018846034870505
22,7.048337723577899
23,7.006978675166531
24,17.685041944711603
2,1,12,10, 0, 1,35.00,36.00,Sunday
7,5.9399999999999995
8,2739.7402643320593
9,2747.2781871755383
10,8.028500127502575
11,7.99889585940969
12,8.05799638013666
13,8.02863202573379
14,8.22281401678624
15,8.194919415074567
16,8.227117921281796
17,8.199258866600932
18,10.709376448964575
19,10.7
20,6.917930362989002
21,6.874759934814923
22,7.021206860144469
23,6.979734553350636
24,17.679153604952493
2,1,12,10, 0, 1,36.00,37.00,Sunday
7,5.8966666666666665
8,2747.2781871755383
9,2754.8727830283106
10,8.001504387510012
11,7.9717959946212655
12,8.030358076402862
13,8.000883992878698
14,8.195943867346648
15,8.167947748550546
16,8.200247761851168
17,8.172287195998518
18,10.703982779057437
19,10.7
20,6.891056204063179
21,6.84777063983372
22,6.994211564404599
23,6.952625364446401
24,17.673561860870688
2,1,12,10, 0, 1,37.00,38.00,Sunday
7,5.8533333333333335
8,2754.8727830283106
9,2762.519894627258
10,7.974638277493554
11,7.944825204037478
12,8.002838951038214
13,7.973254490541264
14,8.169202507105517
15,8.141104303309865
16,8.173506383651732
17,8.145443738758352
18,10.698626277931144
19,10.7
20,6.864317521538681
21,6.820916206199885
22,6.967351270287665
23,6.925650566825642
24,17.668258633314622
2,1,12,10, 0, 1,38.00,39.00,Sunday
7,5.8100000000000005
8,2762.519894627258
9,2770.215367472179
10,7.947901109093545
11,7.917982819593939
12,7.97543820314203
13,7.94574273720789
14,8.142589066587217
15,8.114388229518433
16,8.146892917550806
17,8.118727645385713
18,10.693306318049576
19,10.7
20,6.837713452865502
21,6.79419579528683
22,6.940625110085491
23,6.898809316488577
24,17.66323517253748
2,1,12,10, 0, 1,39.00,40.00,Sunday
7,5.7666666666666675
8,2770.215367472179
9,2777.955356176858
10,7.921291890494222
11,7.891267871861033
12,7.9481547345116335
13,7.918347656141095
14,8.11610240863026
15,8.087798411603467
16,8.120406226674639
17,8.092137800592074
18,10.688022190958794
19,10.7
20,6.811242851398188
21,6.767608286605941
22,6.914031947051537
23,6.872100502588782
24,17.6584817938938
2,1,12,10, 0, 1,40.00,41.00,Sunday
7,5.723333333333334
8,2777.955356176858
9,2785.736396027718
10,7.894809342460449
11,7.8646791064869115
12,7.920987163671078
13,7.891067889826527
14,8.089741128788646
15,8.061333469095326
16,8.094044906842482
17,8.065672824169539
18,10.682773092808054
19,10.7
20,6.784904289181413
21,6.741152281094669
22,6.887570373350393
23,6.845522745888361
24,17.653988149355918
2,1,12,10, 0, 1,41.00,42.00,Sunday
7,5.680000000000001
8,2785.736396027718
9,2793.5553619481757
10,7.868451928741475
11,7.838215013982335
12,7.89393385534958
13,7.863901828844615
14,8.063503576150795
15,8.034991776857959
16,8.067807307402786
17,8.039331091238601
18,10.677558145138642
19,10.7
20,6.7586960820109105
21,6.714826125491999
22,6.861238731771275
23,6.819074419802012
24,17.649743603155333
2,1,12,10, 0, 1,42.00,43.00,Sunday
7,5.636666666666667
8,2793.5553619481757
9,2801.4093991251866
10,7.842217905623555
11,7.811873878421376
12,7.866992969825535
13,7.836847660374732
14,8.037387897185935
15,8.00877150811057
16,8.04169157508597
17,8.01311077527622
18,10.672376424795937
19,10.7
20,6.732616339306406
21,6.68862796125293
22,6.8350351630129955
23,6.792753696739611
24,17.64573752569211
2,1,12,10, 0, 1,43.00,44.00,Sunday
7,5.593333333333334
8,2801.4093991251866
9,2809.295864103989
10,7.816105379090025
11,7.785653833890701
12,7.840162520313833
13,7.809903424882157
14,8.011392089735626
15,7.982670687730594
16,8.015695707995922
17,7.987009901418839
18,10.667226989845588
19,10.7
20,6.706663023808529
21,6.662555783446443
22,6.80895766341942
23,6.766558605053848
24,17.641959471607123
2,1,12,10, 0, 1,44.00,45.00,Sunday
7,5.550000000000001
8,2809.295864103989
9,2817.212285488844
10,7.790112358557739
11,7.75955291774587
12,7.813440427146016
13,7.7830670698260915
14,7.985514055202744
15,7.9566872439792125
16,7.9898176077968435
17,7.9610263981857585
18,10.662108897861565
19,10.7
20,6.680834007816264
21,6.636607496457188
22,6.78300413983737
23,6.740487083368427
24,17.63839927016731
2,1,12,10, 0, 1,45.00,46.00,Sunday
7,5.506666666666667
8,2817.212285488844
9,2825.156340373461
10,7.764236801505247
11,7.7335691149501145
12,7.7868245629045
13,7.756336494510042
14,7.959751642608569
15,7.930819052280716
16,7.964055123767524
17,7.935158141255717
18,10.657021217547506
19,10.7
20,6.655127119411826
21,6.610780959891948
22,6.757172454948872
23,6.714537025594443
24,17.635047065774867
2,1,12,10, 0, 1,46.00,47.00,Sunday
7,5.463333333333333
8,2825.156340373461
9,2833.125839936452
10,7.738476647896768
11,7.707700392330644
12,7.760312787321137
13,7.729709584816218
14,7.934102682983485
15,7.905063969453284
16,7.938406087189391
17,7.909402987694975
18,10.651963035880154
19,10.7
20,6.629540177556204
21,6.5850740234946
22,6.731460461832888
23,6.688706315312195
24,17.631893335697676
2,1,12,10, 0, 1,47.00,48.00,Sunday
7,5.42
8,2833.125839936452
9,2841.118719237936
10,7.712829845728626
11,7.681944724024341
12,7.733902973223146
13,7.70318423905278
14,7.908565015139955
15,7.8794198593862586
16,7.9128683371176844
17,7.883758801632803
18,10.646933462631488
19,10.7
20,6.604071017679297
21,6.559484552630567
22,6.705866029257667
23,6.662992850957758
24,17.628928899073703
2,1,12,10, 0, 1,48.00,49.00,Sunday
7,5.376666666666667
8,2841.118719237936
9,2849.1330285812564
10,7.687294369718672
11,7.656300110101499
12,7.7075930255328196
13,7.67675838688892
14,7.8831365046847175
15,7.853884611989888
16,7.887439739392026
17,7.8582234732095975
18,10.641931633418642
19,10.7
20,6.578717510092946
21,6.534010446632567
22,6.6803870599375905
23,6.637394564012211
24,17.62614492241357
2,1,12,10, 0, 1,49.00,50.00,Sunday
7,5.333333333333334
8,2849.1330285812564
9,2857.166925465012
10,7.661868234956932
11,7.630764590171157
12,7.681380895143247
13,7.650430003185681
14,7.8578150580009325
15,7.8284561571342355
16,7.862118200617465
17,7.832794932514654
18,10.636956711850015
19,10.7
20,6.553477573251707
21,6.508649652015878
22,6.655021503716972
23,6.611909432139574
24,17.623532922618853
2,1,12,10, 0, 1,50.00,51.00,Sunday
7,5.29
8,2857.166925465012
9,2865.218666971578
10,7.636549506862903
11,7.6053362533079065
12,7.65526458902623
13,7.624197118073313
14,7.832598632504313
15,7.803132474876064
16,7.836901678419836
17,7.807471159812298
18,10.632007891016078
19,10.7
20,6.5283491833108656
21,6.483400172006502
22,6.629767367095747
23,6.586535488682303
24,17.621084767290082
2,1,12,10, 0, 1,51.00,52.00,Sunday
7,5.246666666666667
8,2865.218666971578
9,2873.286602691531
10,7.611336308365745
11,7.580013245214305
12,7.629242177502124
13,7.598057824203012
14,7.80748524407336
15,7.777911602871996
16,7.811788188875203
17,7.782250192954232
18,10.62708439443595
19,10.7
20,6.503330380934771
21,6.458260073333158
22,6.6046227200304015
23,6.561270829445506
24,17.618792672165124
2,1,12,10, 0, 1,52.00,53.00,Sunday
7,5.203333333333333
8,2873.286602691531
9,2881.3691682732197
10,7.5862268249275555
11,7.554793773237644
12,7.603311799303849
13,7.57201028180388
14,7.782472972270845
15,7.752791641593775
16,7.786775811731111
17,7.757130132594575
18,10.622185476532934
19,10.7
20,6.478419275980911
21,6.433227490907079
22,6.5795857006261675
23,6.536113617384481
24,17.616649195899935
2,1,12,10, 0, 1,53.00,54.00,Sunday
7,5.16
8,2881.3691682732197
9,2889.464879608259
10,7.56121930785452
11,7.529676109684198
12,7.577471664891415
13,7.546052721999867
14,7.757559963804111
15,7.7277707577916575
16,7.7618626938665605
17,7.732109145652917
18,10.617310422716843
19,10.7
20,6.453614050497662
21,6.408300630825793
22,6.554654518153909
23,6.511062085627218
24,17.61464723266319
2,1,12,10, 0, 1,54.00,55.00,Sunday
7,5.116666666666667
8,2889.464879608259
9,2897.5723276023436
10,7.536312076238792
11,7.504658593771975
12,7.551720058368142
13,7.520183448736092
14,7.7327444345721705
15,7.702847186552107
16,7.737047051339038
17,7.707185467371935
18,10.612458549143929
19,10.7
20,6.428912960372748
21,6.383477772035953
22,6.529827454724745
23,6.48611453916296
24,17.612780003092496
2,1,12,10, 0, 1,55.00,56.00,Sunday
7,5.073333333333334
8,2897.5723276023436
9,2905.690173454633
10,7.511502659071162
11,7.4797396324989345
12,7.526054479546885
13,7.494400839600417
14,7.708023851906235
15,7.678019232233571
16,7.712326351624871
17,7.682357402253162
18,10.606971607799482
19,10.7
20,6.404313454113785
21,6.358757266928698
22,6.505102009823961
23,6.461269355468372
24,17.611033389729638
2,1,12,10, 0, 1,56.00,57.00,Sunday
7,5.03
8,2905.690173454633
9,2913.8188283326117
10,7.486772139988873
11,7.454899087506146
12,7.50045595438177
13,7.468684697477469
14,7.683379830309856
15,7.653267344913857
16,7.6876822096059465
17,7.6576054007562195
18,10.601513925912325
19,10.7
20,6.379796366756626
21,6.33411869886166
22,6.48045953037409
23,6.436506670039161
24,17.609393826382522
2,1,12,10, 0, 1,57.00,58.00,Sunday
7,4.986666666666667
8,2913.8188283326117
9,2921.958864474384
10,7.462123395898916
11,7.4301403030316875
12,7.474927338850334
13,7.443038346053122
14,7.658814781104164
15,7.628594380540455
16,7.663117036919933
17,7.632932319141247
18,10.59607458474843
19,10.7
20,6.355364745726916
21,6.309565598779502
22,6.455902878293197
23,6.411829812880839
24,17.607853210328994
2,1,12,10, 0, 1,58.00,59.00,Sunday
7,4.943333333333333
8,2921.958864474384
9,2930.1099234785097
10,7.437557755891772
11,7.405464616105097
12,7.449469957609332
13,7.417463118086727
14,7.634329737171804
15,7.604001380211824
16,7.6386318666879065
17,7.608339198740826
18,10.590653412343494
19,10.7
20,6.331019911063219
21,6.2850992974871405
22,6.431433283061994
23,6.387240024299764
24,17.60640780514596
2,1,12,10, 0, 1,59.00,60.00,Sunday
7,4.9
8,2930.1099234785097
9,2938.2708484121977
10,7.413075925293177
11,7.380872739337261
12,7.424084521344655
13,7.391959731692984
14,7.609925201565334
15,7.579488854024855
16,7.6142272021038835
17,7.583826549790559
18,10.58525025820685
19,10.7
20,6.306762525300136
21,6.260720466679002
22,6.40705136166899
23,6.3627379304062925
24,17.60505591912681
2,1,12,10, 0, 2, 0.00, 1.00,Sunday
7,4.901666666666666
8,2938.2708484121977
9,2946.4401072334917
10,7.395369172186191
11,7.363204364028409
12,7.4059640134601805
13,7.373882619526538
14,7.592127904890953
15,7.561727353835472
16,7.596429420216716
17,7.566064560197385
18,10.58082292102913
19,10.7
20,6.289722856612353
21,6.2437223638654435
22,6.389880638783997
23,6.345609213178935
24,17.60436312584655
2,1,12,10, 0, 2, 1.00, 2.00,Sunday
7,4.903333333333334
8,2946.4401072334917
9,2954.4914033726122
10,7.3825564210998476
11,7.35041497344542
12,7.393054798175072
13,7.361001422579891
14,7.579158523762765
15,7.548779800238386
16,7.583459274703652
17,7.553116235611324
18,10.577153431955754
19,10.7
20,6.277748288061492
21,6.231773886271839
22,6.3777828114808734
23,6.3335377610978085
24,17.60517980083579
2,1,12,10, 0, 2, 2.00, 3.00,Sunday
7,4.905
8,2954.4914033726122
9,2962.2244723580493
10,7.373308410163675
11,7.341182035082787
12,7.383913232790603
13,7.351879347586353
14,7.569743130284449
15,7.539378477386698
16,7.574042890629772
17,7.543713914050112
18,10.574020175180786
19,10.7
20,6.269379609465587
21,6.223422626530153
22,6.369302245890083
23,6.325074682948202
24,17.608114760327584
2,1,12,10, 0, 2, 3.00, 4.00,Sunday
7,4.906666666666667
8,2962.2244723580493
9,2969.475185253138
10,7.366738456242599
11,7.334616493283444
12,7.377580066749491
13,7.3455548747418185
14,7.56302190827078
15,7.532661148820927
16,7.567320486456349
17,7.536995394353526
18,10.57138915759759
19,10.7
20,6.263679297122812
21,6.217728513423612
22,6.363499852803093
23,6.319278498943538
24,17.613340198966107
2,1,12,10, 0, 2, 4.00, 5.00,Sunday
7,4.908333333333334
8,2969.475185253138
9,2976.1632935461116
10,7.362235576382284
11,7.330108580829665
12,7.373398257754463
13,7.341372242080905
14,7.558395394794458
15,7.528029440703074
16,7.56269262489857
17,7.532362328706197
18,10.569184658053016
19,10.7
20,6.260021644416433
21,6.214067029723107
22,6.35974698751568
23,6.315521790172029
24,17.620667122362914
2,1,12,10, 0, 2, 5.00, 6.00,Sunday
7,4.91
8,2976.1632935461116
9,2982.284566419492
10,7.359354485224587
11,7.327214471301916
12,7.370893239465959
13,7.338858381722359
14,7.55542174412086
15,7.525042878831975
16,7.559717482785633
17,7.529374265667392
18,10.56733311625067
19,10.7
20,6.257960158543298
21,6.211993191646223
22,6.357594561933826
23,6.313356994590965
24,17.629713517470545
2,1,12,10, 0, 2, 6.00, 7.00,Sunday
7,4.911666666666666
8,2982.284566419492
9,2987.8810170485544
10,7.357757602317458
11,7.3255917964862345
12,7.3697086557124605
13,7.3376522734664515
14,7.5537627786926365
15,7.523358348075426
16,7.558056904830516
17,7.527688112062108
18,10.565955898325637
19,10.7
20,6.257159379791543
21,6.21116693705498
22,6.356705329203005
23,6.312442315218567
24,17.640052597711495
2,1,12,10, 0, 2, 7.00, 8.00,Sunday
7,4.913333333333334
8,2987.8810170485544
9,2993.0121490461347
10,7.357159683192992
11,7.32497310097948
12,7.369547467747643
13,7.337474485807295
14,7.553130198871179
15,7.522705521126055
16,7.557422612177531
17,7.527033561946466
18,10.564467451969035
19,10.7
20,6.257336354198211
21,6.211323054325622
22,6.35679529483141
23,6.312511433474907
24,17.651290690467622
2,1,12,10, 0, 2, 8.00, 9.00,Sunday
7,4.915
8,2993.0121490461347
9,2997.738716685557
10,7.357331064546356
11,7.325119458487231
12,7.3701721852808015
13,7.338078363738547
14,7.553291371937303
15,7.522842292518956
16,7.557581992301475
17,7.5271685299840625
18,10.563171003452181
19,10.7
20,6.258262700987102
21,6.212224074084297
22,6.357635984354484
23,6.313326790268797
24,17.663102762596136
2,1,12,10, 0, 2, 9.00,10.00,Sunday
7,4.916666666666667
8,2997.738716685557
9,3002.114247007931
10,7.358089996509283
11,7.325850104345913
12,7.371395976582609
13,7.339278064446925
14,7.554060670571064
15,7.523584000359835
16,7.558349436026079
17,7.52790837242189
18,10.562015825845952
19,10.7
20,6.2597577790944525
21,6.213690422575247
22,6.359046553857519
23,6.314708613690091
24,17.6752368012689
2,1,12,10, 0, 2,10.00,11.00,Sunday
7,4.918333333333334
8,3002.114247007931
9,3006.182703248001
10,7.359288112031626
11,7.3270176451729405
12,7.373067100836429
13,7.340922821597795
14,7.555286069812592
15,7.524779570527366
16,7.559572934129629
17,7.529102030877203
18,10.560961292571223
19,10.7
20,6.26167406991433
21,6.215575623048124
22,6.360879472916821
23,6.316510414064769
24,17.687501990846467
2,1,12,10, 0, 2,11.00,12.00,Sunday
7,4.92
8,3006.182703248001
9,3009.979625515558
10,7.360811062729172
11,7.328503038176055