Program Version,EnergyPlus, Version 25.1.0-1c11a3d85f, YMD=2026.04.14 13:10
1,5,Environment Title[],Latitude[deg],Longitude[deg],Time Zone[],Elevation[m]
2,8,Day of Simulation[],Month[],Day of Month[],DST Indicator[1=yes 0=no],Hour[],StartMinute[],EndMinute[],DayType
3,5,Cumulative Day of Simulation[],Month[],Day of Month[],DST Indicator[1=yes 0=no],DayType  ! When Daily Report Variables Requested
4,2,Cumulative Days of Simulation[],Month[]  ! When Monthly Report Variables Requested
5,1,Cumulative Days of Simulation[] ! When Run Period Report Variables Requested
6,1,Calendar Year of Simulation[] ! When Annual Report Variables Requested
7,1,Environment,Site Outdoor Air Drybulb Temperature [C] !TimeStep
14,1,GREENHOUSE,Zone Mean Air Temperature [C] !TimeStep
End of Data Dictionary
1,RUN1,  36.85,  -2.36,   1.00,  21.00
2,1,12, 1, 0, 1, 0.00, 1.00,Sunday
7,10.983333333333333
14,9.345544644659446
2,1,12, 1, 0, 1, 1.00, 2.00,Sunday
7,10.966666666666667
14,9.331247921471752
2,1,12, 1, 0, 1, 2.00, 3.00,Sunday
7,10.95
14,9.318539430424991
2,1,12, 1, 0, 1, 3.00, 4.00,Sunday
7,10.933333333333334
14,9.308238604624286
2,1,12, 1, 0, 1, 4.00, 5.00,Sunday
7,10.916666666666666
14,9.300194475041396
2,1,12, 1, 0, 1, 5.00, 6.00,Sunday
7,10.9
14,9.293920610124713
2,1,12, 1, 0, 1, 6.00, 7.00,Sunday
7,10.883333333333333
14,9.288969260393847
2,1,12, 1, 0, 1, 7.00, 8.00,Sunday
7,10.866666666666667
14,9.285019198812169
2,1,12, 1, 0, 1, 8.00, 9.00,Sunday
7,10.85
14,9.281847567076118
2,1,12, 1, 0, 1, 9.00,10.00,Sunday
7,10.833333333333334
14,9.27928694490298
2,1,12, 1, 0, 1,10.00,11.00,Sunday
7,10.816666666666666
14,9.277199894870355
2,1,12, 1, 0, 1,11.00,12.00,Sunday
7,10.8
14,9.275469210113249
2,1,12, 1, 0, 1,12.00,13.00,Sunday
7,10.783333333333335
14,9.27399517674106
2,1,12, 1, 0, 1,13.00,14.00,Sunday
7,10.766666666666667
14,9.272694275646211
2,1,12, 1, 0, 1,14.00,15.00,Sunday
7,10.75
14,9.271497490024366
2,1,12, 1, 0, 1,15.00,16.00,Sunday
7,10.733333333333333
14,9.270348226729423
2,1,12, 1, 0, 1,16.00,17.00,Sunday
7,10.716666666666667
14,9.269212823197787
2,1,12, 1, 0, 1,17.00,18.00,Sunday
7,10.7
14,9.268065863556712
2,1,12, 1, 0, 1,18.00,19.00,Sunday
7,10.683333333333334
14,9.266882166325008
2,1,12, 1, 0, 1,19.00,20.00,Sunday
7,10.666666666666668
14,9.265635360377734
2,1,12, 1, 0, 1,20.00,21.00,Sunday
7,10.65
14,9.264300896580837
2,1,12, 1, 0, 1,21.00,22.00,Sunday
7,10.633333333333333
14,9.262858170017717
2,1,12, 1, 0, 1,22.00,23.00,Sunday
7,10.616666666666667
14,9.261290915225288
2,1,12, 1, 0, 1,23.00,24.00,Sunday
7,10.6
14,9.259586635572868
2,1,12, 1, 0, 1,24.00,25.00,Sunday
7,10.583333333333332
14,9.257735822534652
2,1,12, 1, 0, 1,25.00,26.00,Sunday
7,10.566666666666666
14,9.255731305407215
2,1,12, 1, 0, 1,26.00,27.00,Sunday
7,10.55
14,9.253567782107357
2,1,12, 1, 0, 1,27.00,28.00,Sunday
7,10.533333333333333
14,9.251241479019429
2,1,12, 1, 0, 1,28.00,29.00,Sunday
7,10.516666666666666
14,9.24874988741796
2,1,12, 1, 0, 1,29.00,30.00,Sunday
7,10.5
14,9.246091540875229
2,1,12, 1, 0, 1,30.00,31.00,Sunday
7,10.483333333333334
14,9.243265828944262
2,1,12, 1, 0, 1,31.00,32.00,Sunday
7,10.466666666666667
14,9.24027284258484
2,1,12, 1, 0, 1,32.00,33.00,Sunday
7,10.45
14,9.237113243351565
2,1,12, 1, 0, 1,33.00,34.00,Sunday
7,10.433333333333334
14,9.233788153983058
2,1,12, 1, 0, 1,34.00,35.00,Sunday
7,10.416666666666668
14,9.230299067727213
2,1,12, 1, 0, 1,35.00,36.00,Sunday
7,10.4
14,9.226647773438971
2,1,12, 1, 0, 1,36.00,37.00,Sunday
7,10.383333333333333
14,9.22283629367738
2,1,12, 1, 0, 1,37.00,38.00,Sunday
7,10.366666666666667
14,9.206862673762926
2,1,12, 1, 0, 1,38.00,39.00,Sunday
7,10.35
14,9.172185281279248
2,1,12, 1, 0, 1,39.00,40.00,Sunday
7,10.333333333333332
14,9.135112710368107
2,1,12, 1, 0, 1,40.00,41.00,Sunday
7,10.316666666666666
14,9.101893451110564
2,1,12, 1, 0, 1,41.00,42.00,Sunday
7,10.3
14,9.074913149341153
2,1,12, 1, 0, 1,42.00,43.00,Sunday
7,10.283333333333333
14,9.053189582233523
2,1,12, 1, 0, 1,43.00,44.00,Sunday
7,10.266666666666667
14,9.035170718426993
2,1,12, 1, 0, 1,44.00,45.00,Sunday
7,10.25
14,9.019741566426761
2,1,12, 1, 0, 1,45.00,46.00,Sunday
7,10.233333333333333
14,9.006265954862599
2,1,12, 1, 0, 1,46.00,47.00,Sunday
7,10.216666666666667
14,8.994373784912408
2,1,12, 1, 0, 1,47.00,48.00,Sunday
7,10.2
14,8.98379655385644
2,1,12, 1, 0, 1,48.00,49.00,Sunday
7,10.183333333333334
14,8.974300245593732
2,1,12, 1, 0, 1,49.00,50.00,Sunday
7,10.166666666666668
14,8.965673438675779
2,1,12, 1, 0, 1,50.00,51.00,Sunday
7,10.15
14,8.957731512156919
2,1,12, 1, 0, 1,51.00,52.00,Sunday
7,10.133333333333335
14,8.950319308895612
2,1,12, 1, 0, 1,52.00,53.00,Sunday
7,10.116666666666665
14,8.943309377877448
2,1,12, 1, 0, 1,53.00,54.00,Sunday
7,10.1
14,8.936597873104743
2,1,12, 1, 0, 1,54.00,55.00,Sunday
7,10.083333333333334
14,8.93010020948558
2,1,12, 1, 0, 1,55.00,56.00,Sunday
7,10.066666666666666
14,8.923747408270328
2,1,12, 1, 0, 1,56.00,57.00,Sunday
7,10.05
14,8.917483241950661
2,1,12, 1, 0, 1,57.00,58.00,Sunday
7,10.033333333333333
14,8.911261994365686
2,1,12, 1, 0, 1,58.00,59.00,Sunday
7,10.016666666666666
14,8.905046646676075
2,1,12, 1, 0, 1,59.00,60.00,Sunday
7,10.0
14,8.898807371213966
2,1,12, 1, 0, 2, 0.00, 1.00,Sunday
7,9.991666666666665
14,8.892896855495206
2,1,12, 1, 0, 2, 1.00, 2.00,Sunday
7,9.983333333333333
14,8.88738840391197
2,1,12, 1, 0, 2, 2.00, 3.00,Sunday
7,9.975
14,8.881408903469595
2,1,12, 1, 0, 2, 3.00, 4.00,Sunday
7,9.966666666666667
14,8.874371495382226
2,1,12, 1, 0, 2, 4.00, 5.00,Sunday
7,9.958333333333332
14,8.866170062258412
2,1,12, 1, 0, 2, 5.00, 6.00,Sunday
7,9.95
14,8.856959281207942
2,1,12, 1, 0, 2, 6.00, 7.00,Sunday
7,9.941666666666666
14,8.8469491191454
2,1,12, 1, 0, 2, 7.00, 8.00,Sunday
7,9.933333333333334
14,8.836312549337823
2,1,12, 1, 0, 2, 8.00, 9.00,Sunday
7,9.925
14,8.825172359413504
2,1,12, 1, 0, 2, 9.00,10.00,Sunday
7,9.916666666666668
14,8.813616053494444
2,1,12, 1, 0, 2,10.00,11.00,Sunday
7,9.908333333333333
14,8.801711175109324
2,1,12, 1, 0, 2,11.00,12.00,Sunday
7,9.9
14,8.789513771110231
2,1,12, 1, 0, 2,12.00,13.00,Sunday
7,9.891666666666666
14,8.777071676882468
2,1,12, 1, 0, 2,13.00,14.00,Sunday
7,9.883333333333333
14,8.764425622329256
2,1,12, 1, 0, 2,14.00,15.00,Sunday
7,9.875
14,8.751609906449984
2,1,12, 1, 0, 2,15.00,16.00,Sunday
7,9.866666666666667
14,8.738653175992681
2,1,12, 1, 0, 2,16.00,17.00,Sunday
7,9.858333333333334
14,8.725579284621427
2,1,12, 1, 0, 2,17.00,18.00,Sunday
7,9.85
14,8.712408103537774
2,1,12, 1, 0, 2,18.00,19.00,Sunday
7,9.841666666666667
14,8.699156212125803
2,1,12, 1, 0, 2,19.00,20.00,Sunday
7,9.833333333333334
14,8.68583746088381
2,1,12, 1, 0, 2,20.00,21.00,Sunday
7,9.825
14,8.6724634278685
2,1,12, 1, 0, 2,21.00,22.00,Sunday
7,9.816666666666666
14,8.659043793229962
2,1,12, 1, 0, 2,22.00,23.00,Sunday
7,9.808333333333334
14,8.645586650405622
2,1,12, 1, 0, 2,23.00,24.00,Sunday
7,9.8
14,8.632098766378883
2,1,12, 1, 0, 2,24.00,25.00,Sunday
7,9.791666666666666
14,8.618585799611031
2,1,12, 1, 0, 2,25.00,26.00,Sunday
7,9.783333333333333
14,8.60505248232845
2,1,12, 1, 0, 2,26.00,27.00,Sunday
7,9.775
14,8.591502772800029
2,1,12, 1, 0, 2,27.00,28.00,Sunday
7,9.766666666666666
14,8.577939982465104
2,1,12, 1, 0, 2,28.00,29.00,Sunday
7,9.758333333333333
14,8.564366882061506
2,1,12, 1, 0, 2,29.00,30.00,Sunday
7,9.75
14,8.550785790243484
2,1,12, 1, 0, 2,30.00,31.00,Sunday
7,9.741666666666667
14,8.537198647596863
2,1,12, 1, 0, 2,31.00,32.00,Sunday
7,9.733333333333334
14,8.523607078468222
2,1,12, 1, 0, 2,32.00,33.00,Sunday
7,9.725000000000001
14,8.510012442619045
2,1,12, 1, 0, 2,33.00,34.00,Sunday
7,9.716666666666667
14,8.496415878381834
2,1,12, 1, 0, 2,34.00,35.00,Sunday
7,9.708333333333332
14,8.482818338719058
2,1,12, 1, 0, 2,35.00,36.00,Sunday
7,9.7
14,8.469220621354605
2,1,12, 1, 0, 2,36.00,37.00,Sunday
7,9.691666666666666
14,8.455623393955216
2,1,12, 1, 0, 2,37.00,38.00,Sunday
7,9.683333333333334
14,8.44202721517852
2,1,12, 1, 0, 2,38.00,39.00,Sunday
7,9.675
14,8.428432552269285
2,1,12, 1, 0, 2,39.00,40.00,Sunday
7,9.666666666666668
14,8.414839795773224
2,1,12, 1, 0, 2,40.00,41.00,Sunday
7,9.658333333333333
14,8.401249271843666
2,1,12, 1, 0, 2,41.00,42.00,Sunday
7,9.65
14,8.387661252537853
2,1,12, 1, 0, 2,42.00,43.00,Sunday
7,9.641666666666666
14,8.374075964434258
2,1,12, 1, 0, 2,43.00,44.00,Sunday
7,9.633333333333333
14,8.36051127683903
2,1,12, 1, 0, 2,44.00,45.00,Sunday
7,9.625
14,8.34698380143865
2,1,12, 1, 0, 2,45.00,46.00,Sunday
7,9.616666666666667
14,8.333499931964335
2,1,12, 1, 0, 2,46.00,47.00,Sunday
7,9.608333333333334
14,8.320056929682787
2,1,12, 1, 0, 2,47.00,48.00,Sunday
7,9.6
14,8.306648304185249
2,1,12, 1, 0, 2,48.00,49.00,Sunday
7,9.591666666666667
14,8.293267579212591
2,1,12, 1, 0, 2,49.00,50.00,Sunday
7,9.583333333333334
14,8.279909640169791
2,1,12, 1, 0, 2,50.00,51.00,Sunday
7,9.575
14,8.266570707003114
2,1,12, 1, 0, 2,51.00,52.00,Sunday
7,9.566666666666666
14,8.253247920861785
2,1,12, 1, 0, 2,52.00,53.00,Sunday
7,9.558333333333334
14,8.239939002490374
2,1,12, 1, 0, 2,53.00,54.00,Sunday
7,9.55
14,8.226642066118703
2,1,12, 1, 0, 2,54.00,55.00,Sunday
7,9.541666666666666
14,8.213355534362274
2,1,12, 1, 0, 2,55.00,56.00,Sunday
7,9.533333333333333
14,8.20007809319403
2,1,12, 1, 0, 2,56.00,57.00,Sunday
7,9.525
14,8.186808655831143
2,1,12, 1, 0, 2,57.00,58.00,Sunday
7,9.516666666666667
14,8.173546327460366
2,1,12, 1, 0, 2,58.00,59.00,Sunday
7,9.508333333333335
14,8.16029037200039
2,1,12, 1, 0, 2,59.00,60.00,Sunday
7,9.5
14,8.147040183131018
2,1,12, 1, 0, 3, 0.00, 1.00,Sunday
7,9.493333333333334
14,8.13420929294753
2,1,12, 1, 0, 3, 1.00, 2.00,Sunday
7,9.486666666666666
14,8.12266287846684
2,1,12, 1, 0, 3, 2.00, 3.00,Sunday
7,9.48
14,8.11289585079837
2,1,12, 1, 0, 3, 3.00, 4.00,Sunday
7,9.473333333333334
14,8.104888668359386
2,1,12, 1, 0, 3, 4.00, 5.00,Sunday
7,9.466666666666665
14,8.098358063762522
2,1,12, 1, 0, 3, 5.00, 6.00,Sunday
7,9.46
14,8.092983685274696
2,1,12, 1, 0, 3, 6.00, 7.00,Sunday
7,9.453333333333333
14,8.08850652880204
2,1,12, 1, 0, 3, 7.00, 8.00,Sunday
7,9.446666666666667
14,8.08473952570476
2,1,12, 1, 0, 3, 8.00, 9.00,Sunday
7,9.44
14,8.081547168053875
2,1,12, 1, 0, 3, 9.00,10.00,Sunday
7,9.433333333333334
14,8.07882536621685
2,1,12, 1, 0, 3,10.00,11.00,Sunday
7,9.426666666666666
14,8.076489744728471
2,1,12, 1, 0, 3,11.00,12.00,Sunday
7,9.42
14,8.074470385414893
2,1,12, 1, 0, 3,12.00,13.00,Sunday
7,9.413333333333334
14,8.07270944642944
2,1,12, 1, 0, 3,13.00,14.00,Sunday
7,9.406666666666666
14,8.071159519885846
2,1,12, 1, 0, 3,14.00,15.00,Sunday
7,9.4
14,8.069782033026613
2,1,12, 1, 0, 3,15.00,16.00,Sunday
7,9.393333333333334
14,8.068545686262055
2,1,12, 1, 0, 3,16.00,17.00,Sunday
7,9.386666666666667
14,8.067425062564892
2,1,12, 1, 0, 3,17.00,18.00,Sunday
7,9.379999999999999
14,8.066399477662907
2,1,12, 1, 0, 3,18.00,19.00,Sunday
7,9.373333333333333
14,8.065452063396334
2,1,12, 1, 0, 3,19.00,20.00,Sunday
7,9.366666666666667
14,8.06456904181621
2,1,12, 1, 0, 3,20.00,21.00,Sunday
7,9.36
14,8.063739145538138
2,1,12, 1, 0, 3,21.00,22.00,Sunday
7,9.353333333333333
14,8.06295315010348
2,1,12, 1, 0, 3,22.00,23.00,Sunday
7,9.346666666666668
14,8.062203494428191
2,1,12, 1, 0, 3,23.00,24.00,Sunday
7,9.34
14,8.061483972271665
2,1,12, 1, 0, 3,24.00,25.00,Sunday
7,9.333333333333332
14,8.060789481611414
2,1,12, 1, 0, 3,25.00,26.00,Sunday
7,9.326666666666666
14,8.060115821243615
2,1,12, 1, 0, 3,26.00,27.00,Sunday
7,9.32
14,8.05945952574963
2,1,12, 1, 0, 3,27.00,28.00,Sunday
7,9.313333333333333
14,8.058817731523957
2,1,12, 1, 0, 3,28.00,29.00,Sunday
7,9.306666666666667
14,8.058188067914672
2,1,12, 1, 0, 3,29.00,30.00,Sunday
7,9.3
14,8.05756856867262
2,1,12, 1, 0, 3,30.00,31.00,Sunday
7,9.293333333333333
14,8.056957599841542
2,1,12, 1, 0, 3,31.00,32.00,Sunday
7,9.286666666666667
14,8.056353800972925
2,1,12, 1, 0, 3,32.00,33.00,Sunday
7,9.28
14,8.0557560371494
2,1,12, 1, 0, 3,33.00,34.00,Sunday
7,9.273333333333333
14,8.05516335978229
2,1,12, 1, 0, 3,34.00,35.00,Sunday
7,9.266666666666666
14,8.05457497453704
2,1,12, 1, 0, 3,35.00,36.00,Sunday
7,9.26
14,8.053990215053291
2,1,12, 1, 0, 3,36.00,37.00,Sunday
7,9.253333333333334
14,8.053408521380005
2,1,12, 1, 0, 3,37.00,38.00,Sunday
7,9.246666666666666
14,8.052829422250813
2,1,12, 1, 0, 3,38.00,39.00,Sunday
7,9.24
14,8.052252520490386
2,1,12, 1, 0, 3,39.00,40.00,Sunday
7,9.233333333333334
14,8.051677480976865
2,1,12, 1, 0, 3,40.00,41.00,Sunday
7,9.226666666666667
14,8.051104020692891
2,1,12, 1, 0, 3,41.00,42.00,Sunday
7,9.219999999999999
14,8.050531900485819
2,1,12, 1, 0, 3,42.00,43.00,Sunday
7,9.213333333333333
14,8.049960918228727
2,1,12, 1, 0, 3,43.00,44.00,Sunday
7,9.206666666666667
14,8.049390903130762
2,1,12, 1, 0, 3,44.00,45.00,Sunday
7,9.2
14,8.04882171099216
2,1,12, 1, 0, 3,45.00,46.00,Sunday
7,9.193333333333333
14,8.048253220236985
2,1,12, 1, 0, 3,46.00,47.00,Sunday
7,9.186666666666667
14,8.047685328587324
2,1,12, 1, 0, 3,47.00,48.00,Sunday
7,9.18
14,8.04711795026754
2,1,12, 1, 0, 3,48.00,49.00,Sunday
7,9.173333333333334
14,8.046551013646967
2,1,12, 1, 0, 3,49.00,50.00,Sunday
7,9.166666666666666
14,8.045984459246704
2,1,12, 1, 0, 3,50.00,51.00,Sunday
7,9.16
14,8.045418238048969
2,1,12, 1, 0, 3,51.00,52.00,Sunday
7,9.153333333333332
14,8.044852310058303
2,1,12, 1, 0, 3,52.00,53.00,Sunday
7,9.146666666666667
14,8.044286643073347
2,1,12, 1, 0, 3,53.00,54.00,Sunday
7,9.139999999999999
14,8.043721211634946
2,1,12, 1, 0, 3,54.00,55.00,Sunday
7,9.133333333333333
14,8.043155996122016
2,1,12, 1, 0, 3,55.00,56.00,Sunday
7,9.126666666666665
14,8.04259098197169
2,1,12, 1, 0, 3,56.00,57.00,Sunday
7,9.12
14,8.042026159004475
2,1,12, 1, 0, 3,57.00,58.00,Sunday
7,9.113333333333333
14,8.04146152083818
2,1,12, 1, 0, 3,58.00,59.00,Sunday
7,9.106666666666666
14,8.040897064377104
2,1,12, 1, 0, 3,59.00,60.00,Sunday
7,9.1
14,8.0403327893653
2,1,12, 1, 0, 4, 0.00, 1.00,Sunday
7,9.088333333333333
14,8.039232435361441
2,1,12, 1, 0, 4, 1.00, 2.00,Sunday
7,9.076666666666666
14,8.036587251970285
2,1,12, 1, 0, 4, 2.00, 3.00,Sunday
7,9.065
14,8.031961928746927
2,1,12, 1, 0, 4, 3.00, 4.00,Sunday
7,9.053333333333333
14,8.025452378382825
2,1,12, 1, 0, 4, 4.00, 5.00,Sunday
7,9.041666666666666
14,8.017373054754133
2,1,12, 1, 0, 4, 5.00, 6.00,Sunday
7,9.03
14,8.008042202660741
2,1,12, 1, 0, 4, 6.00, 7.00,Sunday
7,9.018333333333333
14,7.997707806234997
2,1,12, 1, 0, 4, 7.00, 8.00,Sunday
7,9.006666666666668
14,7.986550449995597
2,1,12, 1, 0, 4, 8.00, 9.00,Sunday
7,8.995
14,7.974706196526702
2,1,12, 1, 0, 4, 9.00,10.00,Sunday
7,8.983333333333333
14,7.962284512747678
2,1,12, 1, 0, 4,10.00,11.00,Sunday
7,8.971666666666668
14,7.949399030117361
2,1,12, 1, 0, 4,11.00,12.00,Sunday
7,8.96
14,7.936147997864494
2,1,12, 1, 0, 4,12.00,13.00,Sunday
7,8.948333333333332
14,7.922605138545603
2,1,12, 1, 0, 4,13.00,14.00,Sunday
7,8.936666666666666
14,7.908822965662732
2,1,12, 1, 0, 4,14.00,15.00,Sunday
7,8.924999999999999
14,7.8948406669071725
2,1,12, 1, 0, 4,15.00,16.00,Sunday
7,8.913333333333334
14,7.880689836278313
2,1,12, 1, 0, 4,16.00,17.00,Sunday
7,8.901666666666667
14,7.866397233902271
2,1,12, 1, 0, 4,17.00,18.00,Sunday
7,8.889999999999999
14,7.8519858099508
2,1,12, 1, 0, 4,18.00,19.00,Sunday
7,8.878333333333334
14,7.837475128788798
2,1,12, 1, 0, 4,19.00,20.00,Sunday
7,8.866666666666667
14,7.82288172377437
2,1,12, 1, 0, 4,20.00,21.00,Sunday
7,8.855
14,7.808219497202962
2,1,12, 1, 0, 4,21.00,22.00,Sunday
7,8.843333333333334
14,7.793500127494597
2,1,12, 1, 0, 4,22.00,23.00,Sunday
7,8.831666666666667
14,7.778733436249795
2,1,12, 1, 0, 4,23.00,24.00,Sunday
7,8.82
14,7.763927696573263
2,1,12, 1, 0, 4,24.00,25.00,Sunday
7,8.808333333333334
14,7.749089885701748
2,1,12, 1, 0, 4,25.00,26.00,Sunday
7,8.796666666666667
14,7.734225892511699
2,1,12, 1, 0, 4,26.00,27.00,Sunday
7,8.785
14,7.719340689918351
2,1,12, 1, 0, 4,27.00,28.00,Sunday
7,8.773333333333333
14,7.704438479406659
2,1,12, 1, 0, 4,28.00,29.00,Sunday
7,8.761666666666667
14,7.689522812659017
2,1,12, 1, 0, 4,29.00,30.00,Sunday
7,8.75
14,7.674596693932414
2,1,12, 1, 0, 4,30.00,31.00,Sunday
7,8.738333333333333
14,7.6596626661504095
2,1,12, 1, 0, 4,31.00,32.00,Sunday
7,8.726666666666667
14,7.644722883249229
2,1,12, 1, 0, 4,32.00,33.00,Sunday
7,8.715
14,7.629779170967063
2,1,12, 1, 0, 4,33.00,34.00,Sunday
7,8.703333333333333
14,7.61483307794017
2,1,12, 1, 0, 4,34.00,35.00,Sunday
7,8.691666666666666
14,7.599885918673765
2,1,12, 1, 0, 4,35.00,36.00,Sunday
7,8.68
14,7.5849388096989925
2,1,12, 1, 0, 4,36.00,37.00,Sunday
7,8.668333333333333
14,7.5699927000117695
2,1,12, 1, 0, 4,37.00,38.00,Sunday
7,8.656666666666666
14,7.555048396709958
2,1,12, 1, 0, 4,38.00,39.00,Sunday
7,8.645
14,7.5401065865972186
2,1,12, 1, 0, 4,39.00,40.00,Sunday
7,8.633333333333333
14,7.52516785439836
2,1,12, 1, 0, 4,40.00,41.00,Sunday
7,8.621666666666666
14,7.510232698126801
2,1,12, 1, 0, 4,41.00,42.00,Sunday
7,8.61
14,7.495301542058005
2,1,12, 1, 0, 4,42.00,43.00,Sunday
7,8.598333333333333
14,7.480374747689779
2,1,12, 1, 0, 4,43.00,44.00,Sunday
7,8.586666666666668
14,7.465452623009279
2,1,12, 1, 0, 4,44.00,45.00,Sunday
7,8.575000000000001
14,7.4505354303347495
2,1,12, 1, 0, 4,45.00,46.00,Sunday
7,8.563333333333333
14,7.435623392957095
2,1,12, 1, 0, 4,46.00,47.00,Sunday
7,8.551666666666666
14,7.420716700770654
2,1,12, 1, 0, 4,47.00,48.00,Sunday
7,8.540000000000001
14,7.405815515051675
2,1,12, 1, 0, 4,48.00,49.00,Sunday
7,8.528333333333334
14,7.390919972518054
2,1,12, 1, 0, 4,49.00,50.00,Sunday
7,8.516666666666667
14,7.376030188782521
2,1,12, 1, 0, 4,50.00,51.00,Sunday
7,8.504999999999999
14,7.361146261293392
2,1,12, 1, 0, 4,51.00,52.00,Sunday
7,8.493333333333332
14,7.346268271842223
2,1,12, 1, 0, 4,52.00,53.00,Sunday
7,8.481666666666667
14,7.331396288704813
2,1,12, 1, 0, 4,53.00,54.00,Sunday
7,8.47
14,7.316530368471962
2,1,12, 1, 0, 4,54.00,55.00,Sunday
7,8.458333333333334
14,7.301670557617234
2,1,12, 1, 0, 4,55.00,56.00,Sunday
7,8.446666666666667
14,7.286816893841373
2,1,12, 1, 0, 4,56.00,57.00,Sunday
7,8.435
14,7.271969407227184
2,1,12, 1, 0, 4,57.00,58.00,Sunday
7,8.423333333333334
14,7.257128121232995
2,1,12, 1, 0, 4,58.00,59.00,Sunday
7,8.411666666666667
14,7.2422930535487575
2,1,12, 1, 0, 4,59.00,60.00,Sunday
7,8.4
14,7.227464216834962
2,1,12, 1, 0, 5, 0.00, 1.00,Sunday
7,8.398333333333333
14,7.213133141713091
2,1,12, 1, 0, 5, 1.00, 2.00,Sunday
7,8.396666666666668
14,7.200181492733273
2,1,12, 1, 0, 5, 2.00, 3.00,Sunday
7,8.395
14,7.1889351195894635
2,1,12, 1, 0, 5, 3.00, 4.00,Sunday
7,8.393333333333334
14,7.179274229300435
2,1,12, 1, 0, 5, 4.00, 5.00,Sunday
7,8.391666666666667
14,7.170912067429405
2,1,12, 1, 0, 5, 5.00, 6.00,Sunday
7,8.39
14,7.163570066820458
2,1,12, 1, 0, 5, 6.00, 7.00,Sunday
7,8.388333333333334
14,7.157034076089137
2,1,12, 1, 0, 5, 7.00, 8.00,Sunday
7,8.386666666666667
14,7.151149095527725
2,1,12, 1, 0, 5, 8.00, 9.00,Sunday
7,8.385
14,7.1457990946864784
2,1,12, 1, 0, 5, 9.00,10.00,Sunday
7,8.383333333333335
14,7.140891648764333
2,1,12, 1, 0, 5,10.00,11.00,Sunday
7,8.381666666666668
14,7.136350102406379
2,1,12, 1, 0, 5,11.00,12.00,Sunday
7,8.38
14,7.132110262137323
2,1,12, 1, 0, 5,12.00,13.00,Sunday
7,8.378333333333334
14,7.128118729914077
2,1,12, 1, 0, 5,13.00,14.00,Sunday
7,8.376666666666667
14,7.1243315012359
2,1,12, 1, 0, 5,14.00,15.00,Sunday
7,8.375
14,7.120712521885143
2,1,12, 1, 0, 5,15.00,16.00,Sunday
7,8.373333333333335
14,7.117232298079409
2,1,12, 1, 0, 5,16.00,17.00,Sunday
7,8.371666666666668
14,7.113866680273934
2,1,12, 1, 0, 5,17.00,18.00,Sunday
7,8.370000000000001
14,7.11059586233423
2,1,12, 1, 0, 5,18.00,19.00,Sunday
7,8.368333333333334
14,7.1074035779088875
2,1,12, 1, 0, 5,19.00,20.00,Sunday
7,8.366666666666667
14,7.104276455208207
2,1,12, 1, 0, 5,20.00,21.00,Sunday
7,8.365000000000002
14,7.101203494126615
2,1,12, 1, 0, 5,21.00,22.00,Sunday
7,8.363333333333333
14,7.098175639020518
2,1,12, 1, 0, 5,22.00,23.00,Sunday
7,8.361666666666668
14,7.09518542839094
2,1,12, 1, 0, 5,23.00,24.00,Sunday
7,8.36
14,7.092226707628409
2,1,12, 1, 0, 5,24.00,25.00,Sunday
7,8.358333333333334
14,7.089294393787171
2,1,12, 1, 0, 5,25.00,26.00,Sunday
7,8.356666666666667
14,7.086384283188105
2,1,12, 1, 0, 5,26.00,27.00,Sunday
7,8.355
14,7.083492894119847
2,1,12, 1, 0, 5,27.00,28.00,Sunday
7,8.353333333333333
14,7.080617338210547
2,1,12, 1, 0, 5,28.00,29.00,Sunday
7,8.351666666666667
14,7.07775521519073
2,1,12, 1, 0, 5,29.00,30.00,Sunday
7,8.350000000000001
14,7.074904526741861
2,1,12, 1, 0, 5,30.00,31.00,Sunday
7,8.348333333333333
14,7.072063605927006
2,1,12, 1, 0, 5,31.00,32.00,Sunday
7,8.346666666666668
14,7.069231059350275
2,1,12, 1, 0, 5,32.00,33.00,Sunday
7,8.345
14,7.06640571971782
2,1,12, 1, 0, 5,33.00,34.00,Sunday
7,8.343333333333334
14,7.06358660690128
2,1,12, 1, 0, 5,34.00,35.00,Sunday
7,8.341666666666669
14,7.060772895952653
2,1,12, 1, 0, 5,35.00,36.00,Sunday
7,8.34
14,7.057963890804946
2,1,12, 1, 0, 5,36.00,37.00,Sunday
7,8.338333333333335
14,7.055159002625246
2,1,12, 1, 0, 5,37.00,38.00,Sunday
7,8.336666666666668
14,7.052360861660564
2,1,12, 1, 0, 5,38.00,39.00,Sunday
7,8.335
14,7.049571923156432
2,1,12, 1, 0, 5,39.00,40.00,Sunday
7,8.333333333333334
14,7.046792870492376
2,1,12, 1, 0, 5,40.00,41.00,Sunday
7,8.331666666666667
14,7.0440228492217285
2,1,12, 1, 0, 5,41.00,42.00,Sunday
7,8.330000000000002
14,7.041260405347327
2,1,12, 1, 0, 5,42.00,43.00,Sunday
7,8.328333333333333
14,7.038504139932448
2,1,12, 1, 0, 5,43.00,44.00,Sunday
7,8.326666666666668
14,7.035752941044986
2,1,12, 1, 0, 5,44.00,45.00,Sunday
7,8.325000000000001
14,7.033005972529772
2,1,12, 1, 0, 5,45.00,46.00,Sunday
7,8.323333333333334
14,7.030262593114351
2,1,12, 1, 0, 5,46.00,47.00,Sunday
7,8.321666666666667
14,7.027522288373871
2,1,12, 1, 0, 5,47.00,48.00,Sunday
7,8.32
14,7.024784631795904
2,1,12, 1, 0, 5,48.00,49.00,Sunday
7,8.318333333333335
14,7.0220492655822735
2,1,12, 1, 0, 5,49.00,50.00,Sunday
7,8.316666666666668
14,7.0193158899333925
2,1,12, 1, 0, 5,50.00,51.00,Sunday
7,8.315000000000001
14,7.016584254715785
2,1,12, 1, 0, 5,51.00,52.00,Sunday
7,8.313333333333334
14,7.013854151699609
2,1,12, 1, 0, 5,52.00,53.00,Sunday
7,8.311666666666667
14,7.0111254074107645
2,1,12, 1, 0, 5,53.00,54.00,Sunday
7,8.31
14,7.008397876942394
2,1,12, 1, 0, 5,54.00,55.00,Sunday
7,8.308333333333334
14,7.005671438845256
2,1,12, 1, 0, 5,55.00,56.00,Sunday
7,8.306666666666667
14,7.002945990997251
2,1,12, 1, 0, 5,56.00,57.00,Sunday
7,8.305000000000001
14,7.000221447268681
2,1,12, 1, 0, 5,57.00,58.00,Sunday
7,8.303333333333333
14,6.997497734809498
2,1,12, 1, 0, 5,58.00,59.00,Sunday
7,8.301666666666668
14,6.9947747918246375
2,1,12, 1, 0, 5,59.00,60.00,Sunday
7,8.3
14,6.9920525657405275
2,1,12, 1, 0, 6, 0.00, 1.00,Sunday
7,8.305
14,6.989726910332511
2,1,12, 1, 0, 6, 1.00, 2.00,Sunday
7,8.31
14,6.988471492619882
2,1,12, 1, 0, 6, 2.00, 3.00,Sunday
7,8.315000000000001
14,6.988469820884714
2,1,12, 1, 0, 6, 3.00, 4.00,Sunday
7,8.32
14,6.989578237040109
2,1,12, 1, 0, 6, 4.00, 5.00,Sunday
7,8.325
14,6.991558824785277
2,1,12, 1, 0, 6, 5.00, 6.00,Sunday
7,8.33
14,6.994203001174626
2,1,12, 1, 0, 6, 6.00, 7.00,Sunday
7,8.335
14,6.997360760394345
2,1,12, 1, 0, 6, 7.00, 8.00,Sunday
7,8.34
14,7.000928459504169
2,1,12, 1, 0, 6, 8.00, 9.00,Sunday
7,8.345
14,7.004830417873976
2,1,12, 1, 0, 6, 9.00,10.00,Sunday
7,8.350000000000001
14,7.009006860216482
2,1,12, 1, 0, 6,10.00,11.00,Sunday
7,8.355
14,7.013408393299939
2,1,12, 1, 0, 6,11.00,12.00,Sunday
7,8.360000000000001
14,7.017993914217319
2,1,12, 1, 0, 6,12.00,13.00,Sunday
7,8.365
14,7.022729579734797
2,1,12, 1, 0, 6,13.00,14.00,Sunday
7,8.370000000000001
14,7.027587850300711
2,1,12, 1, 0, 6,14.00,15.00,Sunday
7,8.375
14,7.032546458120351
2,1,12, 1, 0, 6,15.00,16.00,Sunday
7,8.38
14,7.037587414388368
2,1,12, 1, 0, 6,16.00,17.00,Sunday
7,8.385000000000002
14,7.042696157001976
2,1,12, 1, 0, 6,17.00,18.00,Sunday
7,8.39
14,7.04786086605255
2,1,12, 1, 0, 6,18.00,19.00,Sunday
7,8.395
14,7.053071926878575
2,1,12, 1, 0, 6,19.00,20.00,Sunday
7,8.4
14,7.058321507227148
2,1,12, 1, 0, 6,20.00,21.00,Sunday
7,8.405000000000001
14,7.063603219726054
2,1,12, 1, 0, 6,21.00,22.00,Sunday
7,8.41
14,7.06891184947843
2,1,12, 1, 0, 6,22.00,23.00,Sunday
7,8.415000000000001
14,7.074243133189009
2,1,12, 1, 0, 6,23.00,24.00,Sunday
7,8.42
14,7.079593580060304
2,1,12, 1, 0, 6,24.00,25.00,Sunday
7,8.425
14,7.084960326780116
2,1,12, 1, 0, 6,25.00,26.00,Sunday
7,8.43
14,7.090341020246049
2,1,12, 1, 0, 6,26.00,27.00,Sunday
7,8.435
14,7.095733722736106
2,1,12, 1, 0, 6,27.00,28.00,Sunday
7,8.440000000000001
14,7.101136835180155
2,1,12, 1, 0, 6,28.00,29.00,Sunday
7,8.445
14,7.106549035013779
2,1,12, 1, 0, 6,29.00,30.00,Sunday
7,8.45
14,7.111969225788259
2,1,12, 1, 0, 6,30.00,31.00,Sunday
7,8.455
14,7.117396496270036
2,1,12, 1, 0, 6,31.00,32.00,Sunday
7,8.459999999999999
14,7.1228300872084045
2,1,12, 1, 0, 6,32.00,33.00,Sunday
7,8.465
14,7.128269364304978
2,1,12, 1, 0, 6,33.00,34.00,Sunday
7,8.47
14,7.13371379620185
2,1,12, 1, 0, 6,34.00,35.00,Sunday
7,8.475
14,7.139162936533615
2,1,12, 1, 0, 6,35.00,36.00,Sunday
7,8.48
14,7.144616409272253
2,1,12, 1, 0, 6,36.00,37.00,Sunday
7,8.485
14,7.150073896742459
2,1,12, 1, 0, 6,37.00,38.00,Sunday
7,8.49
14,7.155535129804715
2,1,12, 1, 0, 6,38.00,39.00,Sunday
7,8.495000000000001
14,7.160999879799464
2,1,12, 1, 0, 6,39.00,40.00,Sunday
7,8.5
14,7.166467951924221
2,1,12, 1, 0, 6,40.00,41.00,Sunday
7,8.505
14,7.171939179777595
2,1,12, 1, 0, 6,41.00,42.00,Sunday
7,8.51
14,7.177413420854886
2,1,12, 1, 0, 6,42.00,43.00,Sunday
7,8.515
14,7.18289055282103
2,1,12, 1, 0, 6,43.00,44.00,Sunday
7,8.52
14,7.188370470419158
2,1,12, 1, 0, 6,44.00,45.00,Sunday
7,8.524999999999999
14,7.193853082899775
2,1,12, 1, 0, 6,45.00,46.00,Sunday
7,8.53
14,7.199338311877442
2,1,12, 1, 0, 6,46.00,47.00,Sunday
7,8.535
14,7.204826089538772
2,1,12, 1, 0, 6,47.00,48.00,Sunday
7,8.54
14,7.210316357139945
2,1,12, 1, 0, 6,48.00,49.00,Sunday
7,8.545
14,7.215809063743042
2,1,12, 1, 0, 6,49.00,50.00,Sunday
7,8.55
14,7.221304165150277
2,1,12, 1, 0, 6,50.00,51.00,Sunday
7,8.555
14,7.226801623002269
2,1,12, 1, 0, 6,51.00,52.00,Sunday
7,8.559999999999999
14,7.23230140401258
2,1,12, 1, 0, 6,52.00,53.00,Sunday
7,8.565
14,7.237803479315914
2,1,12, 1, 0, 6,53.00,54.00,Sunday
7,8.57
14,7.243307823911353
2,1,12, 1, 0, 6,54.00,55.00,Sunday
7,8.575
14,7.248814416185325
2,1,12, 1, 0, 6,55.00,56.00,Sunday
7,8.58
14,7.254323237501462
2,1,12, 1, 0, 6,56.00,57.00,Sunday
7,8.585
14,7.259834271846881
2,1,12, 1, 0, 6,57.00,58.00,Sunday
7,8.59
14,7.2653475055263
2,1,12, 1, 0, 6,58.00,59.00,Sunday
7,8.594999999999999
14,7.270862926896626
2,1,12, 1, 0, 6,59.00,60.00,Sunday
7,8.6
14,7.276380526136074
2,1,12, 1, 0, 7, 0.00, 1.00,Sunday
7,8.593333333333332
14,7.281509558791301
2,1,12, 1, 0, 7, 1.00, 2.00,Sunday
7,8.586666666666666
14,7.285726768413624
2,1,12, 1, 0, 7, 2.00, 3.00,Sunday
7,8.58
14,7.289114508426704
2,1,12, 1, 0, 7, 3.00, 4.00,Sunday
7,8.573333333333334
14,7.291926152389782
2,1,12, 1, 0, 7, 4.00, 5.00,Sunday
7,8.566666666666666
14,7.294391742873804
2,1,12, 1, 0, 7, 5.00, 6.00,Sunday
7,8.56
14,7.296650046526429
2,1,12, 1, 0, 7, 6.00, 7.00,Sunday
7,8.553333333333333
14,7.29876558362256
2,1,12, 1, 0, 7, 7.00, 8.00,Sunday
7,8.546666666666667
14,7.300763989106093
2,1,12, 1, 0, 7, 8.00, 9.00,Sunday
7,8.54
14,7.302658114582301
2,1,12, 1, 0, 7, 9.00,10.00,Sunday
7,8.533333333333333
14,7.304459188607359
2,1,12, 1, 0, 7,10.00,11.00,Sunday
7,8.526666666666666
14,7.306178916792867
2,1,12, 1, 0, 7,11.00,12.00,Sunday
7,8.52
14,7.3078285453592775
2,1,12, 1, 0, 7,12.00,13.00,Sunday
7,8.513333333333334
14,7.3094178924676765
2,1,12, 1, 0, 7,13.00,14.00,Sunday
7,8.506666666666666
14,7.3109550608200955
2,1,12, 1, 0, 7,14.00,15.00,Sunday
7,8.5
14,7.312446616319574
2,1,12, 1, 0, 7,15.00,16.00,Sunday
7,8.493333333333332
14,7.313897907551731
2,1,12, 1, 0, 7,16.00,17.00,Sunday
7,8.486666666666666
14,7.315313349329374
2,1,12, 1, 0, 7,17.00,18.00,Sunday
7,8.479999999999999
14,7.3166966271825995
2,1,12, 1, 0, 7,18.00,19.00,Sunday
7,8.473333333333333
14,7.3180508388231535
2,1,12, 1, 0, 7,19.00,20.00,Sunday
7,8.466666666666667
14,7.319378597671962
2,1,12, 1, 0, 7,20.00,21.00,Sunday
7,8.459999999999999
14,7.320682114915119
2,1,12, 1, 0, 7,21.00,22.00,Sunday
7,8.453333333333333
14,7.321963267630465
2,1,12, 1, 0, 7,22.00,23.00,Sunday
7,8.446666666666667
14,7.32322365584653
2,1,12, 1, 0, 7,23.00,24.00,Sunday
7,8.44
14,7.324464649928708
2,1,12, 1, 0, 7,24.00,25.00,Sunday
7,8.433333333333332
14,7.32568742955285
2,1,12, 1, 0, 7,25.00,26.00,Sunday
7,8.426666666666666
14,7.326893015608041
2,1,12, 1, 0, 7,26.00,27.00,Sunday
7,8.42
14,7.328082296314469
2,1,12, 1, 0, 7,27.00,28.00,Sunday
7,8.413333333333332
14,7.329256048662967
2,1,12, 1, 0, 7,28.00,29.00,Sunday
7,8.406666666666666
14,7.330414956070903
2,1,12, 1, 0, 7,29.00,30.00,Sunday
7,8.399999999999999
14,7.331559622962791
2,1,12, 1, 0, 7,30.00,31.00,Sunday
7,8.393333333333333
14,7.332690586838337
2,1,12, 1, 0, 7,31.00,32.00,Sunday
7,8.386666666666667
14,7.333808328280699
2,1,12, 1, 0, 7,32.00,33.00,Sunday
7,8.379999999999999
14,7.334913279273277
2,1,12, 1, 0, 7,33.00,34.00,Sunday
7,8.373333333333333
14,7.336005830125827
2,1,12, 1, 0, 7,34.00,35.00,Sunday
7,8.366666666666667
14,7.3370863352558455
2,1,12, 1, 0, 7,35.00,36.00,Sunday
7,8.36
14,7.338155118026186
2,1,12, 1, 0, 7,36.00,37.00,Sunday
7,8.353333333333333
14,7.339212474803357
2,1,12, 1, 0, 7,37.00,38.00,Sunday
7,8.346666666666666
14,7.3402586783710895
2,1,12, 1, 0, 7,38.00,39.00,Sunday
7,8.34
14,7.341293980809177
2,1,12, 1, 0, 7,39.00,40.00,Sunday
7,8.333333333333332
14,7.342318615928342
2,1,12, 1, 0, 7,40.00,41.00,Sunday
7,8.326666666666666
14,7.343332801335682
2,1,12, 1, 0, 7,41.00,42.00,Sunday
7,8.32
14,7.344336740192099
2,1,12, 1, 0, 7,42.00,43.00,Sunday
7,8.313333333333333
14,7.345330622712886
2,1,12, 1, 0, 7,43.00,44.00,Sunday
7,8.306666666666667
14,7.346314627454201
2,1,12, 1, 0, 7,44.00,45.00,Sunday
7,8.299999999999999
14,7.3472889224208675
2,1,12, 1, 0, 7,45.00,46.00,Sunday
7,8.293333333333333
14,7.348253666025801
2,1,12, 1, 0, 7,46.00,47.00,Sunday
7,8.286666666666665
14,7.3492090079272065