Program Version,EnergyPlus, Version 25.1.0-1c11a3d85f, YMD=2026.04.10 14:05
1,5,Environment Title[],Latitude[deg],Longitude[deg],Time Zone[],Elevation[m]
2,8,Day of Simulation[],Month[],Day of Month[],DST Indicator[1=yes 0=no],Hour[],StartMinute[],EndMinute[],DayType
3,5,Cumulative Day of Simulation[],Month[],Day of Month[],DST Indicator[1=yes 0=no],DayType  ! When Daily Report Variables Requested
4,2,Cumulative Days of Simulation[],Month[]  ! When Monthly Report Variables Requested
5,1,Cumulative Days of Simulation[] ! When Run Period Report Variables Requested
6,1,Calendar Year of Simulation[] ! When Annual Report Variables Requested
7,1,Environment,Site Outdoor Air Drybulb Temperature [C] !TimeStep
8,1,WALL_N,Surface Inside Face Temperature [C] !Hourly
9,1,WALL_S,Surface Inside Face Temperature [C] !Hourly
10,1,WALL_E,Surface Inside Face Temperature [C] !Hourly
11,1,WALL_W,Surface Inside Face Temperature [C] !Hourly
12,1,FLOOR,Surface Inside Face Temperature [C] !Hourly
13,1,ROOF,Surface Inside Face Temperature [C] !Hourly
14,1,ROOF_GLASS,Surface Inside Face Temperature [C] !Hourly
15,1,WALL_N_GLASS,Surface Inside Face Temperature [C] !Hourly
16,1,WALL_S_GLASS,Surface Inside Face Temperature [C] !Hourly
17,1,WALL_E_GLASS,Surface Inside Face Temperature [C] !Hourly
18,1,WALL_W_GLASS,Surface Inside Face Temperature [C] !Hourly
19,1,GREENHOUSE,Zone Mean Air Temperature [C] !TimeStep
End of Data Dictionary
1,RUN PERIOD 1,  45.73,   5.08,   1.00, 240.00
2,1, 7, 1, 0, 1, 0.00, 1.00,Sunday
7,16.97
19,30.363815120786082
2,1, 7, 1, 0, 1, 1.00, 2.00,Sunday
7,16.94
19,30.335269306434785
2,1, 7, 1, 0, 1, 2.00, 3.00,Sunday
7,16.91
19,30.30417865295444
2,1, 7, 1, 0, 1, 3.00, 4.00,Sunday
7,16.88
19,30.270716266367064
2,1, 7, 1, 0, 1, 4.00, 5.00,Sunday
7,16.849999999999998
19,30.235316454079932
2,1, 7, 1, 0, 1, 5.00, 6.00,Sunday
7,16.82
19,30.198391748558866
2,1, 7, 1, 0, 1, 6.00, 7.00,Sunday
7,16.79
19,30.160259033481715
2,1, 7, 1, 0, 1, 7.00, 8.00,Sunday
7,16.76
19,30.12115330098757
2,1, 7, 1, 0, 1, 8.00, 9.00,Sunday
7,16.73
19,30.081255536939253
2,1, 7, 1, 0, 1, 9.00,10.00,Sunday
7,16.700000000000003
19,30.040711408714067
2,1, 7, 1, 0, 1,10.00,11.00,Sunday
7,16.669999999999998
19,29.999640609261196
2,1, 7, 1, 0, 1,11.00,12.00,Sunday
7,16.64
19,29.958141578315512
2,1, 7, 1, 0, 1,12.00,13.00,Sunday
7,16.61
19,29.91629474502419
2,1, 7, 1, 0, 1,13.00,14.00,Sunday
7,16.58
19,29.874165412911957
2,1, 7, 1, 0, 1,14.00,15.00,Sunday
7,16.55
19,29.831806415561925
2,1, 7, 1, 0, 1,15.00,16.00,Sunday
7,16.520000000000003
19,29.789260439950326
2,1, 7, 1, 0, 1,16.00,17.00,Sunday
7,16.490000000000002
19,29.746561964707237
2,1, 7, 1, 0, 1,17.00,18.00,Sunday
7,16.459999999999997
19,29.703738836543884
2,1, 7, 1, 0, 1,18.00,19.00,Sunday
7,16.43
19,29.66081354228363
2,1, 7, 1, 0, 1,19.00,20.00,Sunday
7,16.4
19,29.61780423574605
2,1, 7, 1, 0, 1,20.00,21.00,Sunday
7,16.37
19,29.57472556848652
2,1, 7, 1, 0, 1,21.00,22.00,Sunday
7,16.339999999999996
19,29.531589362512417
2,1, 7, 1, 0, 1,22.00,23.00,Sunday
7,16.310000000000002
19,29.488405154853897
2,1, 7, 1, 0, 1,23.00,24.00,Sunday
7,16.28
19,29.445180637991367
2,1, 7, 1, 0, 1,24.00,25.00,Sunday
7,16.25
19,29.401922015735554
2,1, 7, 1, 0, 1,25.00,26.00,Sunday
7,16.22
19,29.358634290608215
2,1, 7, 1, 0, 1,26.00,27.00,Sunday
7,16.19
19,29.315321495819006
2,1, 7, 1, 0, 1,27.00,28.00,Sunday
7,16.16
19,29.271986882480796
2,1, 7, 1, 0, 1,28.00,29.00,Sunday
7,16.13
19,29.22863307068011
2,1, 7, 1, 0, 1,29.00,30.00,Sunday
7,16.1
19,29.185481502347162
2,1, 7, 1, 0, 1,30.00,31.00,Sunday
7,16.07
19,29.14276554757829
2,1, 7, 1, 0, 1,31.00,32.00,Sunday
7,16.04
19,29.100538917990697
2,1, 7, 1, 0, 1,32.00,33.00,Sunday
7,16.009999999999998
19,29.05874108634948
2,1, 7, 1, 0, 1,33.00,34.00,Sunday
7,15.98
19,29.01728206300566
2,1, 7, 1, 0, 1,34.00,35.00,Sunday
7,15.95
19,28.976083757847693
2,1, 7, 1, 0, 1,35.00,36.00,Sunday
7,15.92
19,28.93508814247412
2,1, 7, 1, 0, 1,36.00,37.00,Sunday
7,15.889999999999999
19,28.89425283093527
2,1, 7, 1, 0, 1,37.00,38.00,Sunday
7,15.86
19,28.853545522105495
2,1, 7, 1, 0, 1,38.00,39.00,Sunday
7,15.829999999999998
19,28.812940493335777
2,1, 7, 1, 0, 1,39.00,40.00,Sunday
7,15.8
19,28.772416827194824
2,1, 7, 1, 0, 1,40.00,41.00,Sunday
7,15.77
19,28.73195747204259
2,1, 7, 1, 0, 1,41.00,42.00,Sunday
7,15.739999999999998
19,28.6915485890149
2,1, 7, 1, 0, 1,42.00,43.00,Sunday
7,15.709999999999999
19,28.651178993441196
2,1, 7, 1, 0, 1,43.00,44.00,Sunday
7,15.68
19,28.61083966250264
2,1, 7, 1, 0, 1,44.00,45.00,Sunday
7,15.649999999999999
19,28.570523317772356
2,1, 7, 1, 0, 1,45.00,46.00,Sunday
7,15.620000000000001
19,28.530224084052993
2,1, 7, 1, 0, 1,46.00,47.00,Sunday
7,15.59
19,28.489937215603554
2,1, 7, 1, 0, 1,47.00,48.00,Sunday
7,15.559999999999999
19,28.44965887719564
2,1, 7, 1, 0, 1,48.00,49.00,Sunday
7,15.53
19,28.40938596845761
2,1, 7, 1, 0, 1,49.00,50.00,Sunday
7,15.499999999999998
19,28.36911598240644
2,1, 7, 1, 0, 1,50.00,51.00,Sunday
7,15.47
19,28.328846891260923
2,1, 7, 1, 0, 1,51.00,52.00,Sunday
7,15.44
19,28.288577054214308
2,1, 7, 1, 0, 1,52.00,53.00,Sunday
7,15.41
19,28.248305142953086
2,1, 7, 1, 0, 1,53.00,54.00,Sunday
7,15.379999999999999
19,28.208030081517908
2,1, 7, 1, 0, 1,54.00,55.00,Sunday
7,15.35
19,28.16775099775003
2,1, 7, 1, 0, 1,55.00,56.00,Sunday
7,15.319999999999999
19,28.127467184090847
2,1, 7, 1, 0, 1,56.00,57.00,Sunday
7,15.290000000000001
19,28.08717806592704
2,1, 7, 1, 0, 1,57.00,58.00,Sunday
7,15.26
19,28.046883176027833
2,1, 7, 1, 0, 1,58.00,59.00,Sunday
7,15.23
19,28.006582133898277
2,1, 7, 1, 0, 1,59.00,60.00,Sunday
7,15.2
19,27.966274629103452
2,1, 7, 1, 0, 1, 0.00,60.00,Sunday
8,21.327984562906284
9,21.447406357048145
10,21.448372753099843
11,21.446033148446016
12,44.93964928311935
13,20.025567155096898
14,19.95698039547539
15,20.94499429580353
16,21.05223988589007
17,21.05364353727414
18,21.05364713520767
2,1, 7, 1, 0, 2, 0.00, 1.00,Sunday
7,15.174999999999999
19,27.925440671135345
2,1, 7, 1, 0, 2, 1.00, 2.00,Sunday
7,15.15
19,27.88499223175314
2,1, 7, 1, 0, 2, 2.00, 3.00,Sunday
7,15.125
19,27.845827453754865
2,1, 7, 1, 0, 2, 3.00, 4.00,Sunday
7,15.1
19,27.8082333028101
2,1, 7, 1, 0, 2, 4.00, 5.00,Sunday
7,15.075
19,27.772080388389952
2,1, 7, 1, 0, 2, 5.00, 6.00,Sunday
7,15.05
19,27.737106550121347
2,1, 7, 1, 0, 2, 6.00, 7.00,Sunday
7,15.024999999999999
19,27.703066661516925
2,1, 7, 1, 0, 2, 7.00, 8.00,Sunday
7,15.0
19,27.669770715832815
2,1, 7, 1, 0, 2, 8.00, 9.00,Sunday
7,14.975
19,27.637075650241698
2,1, 7, 1, 0, 2, 9.00,10.00,Sunday
7,14.95
19,27.604869978725034
2,1, 7, 1, 0, 2,10.00,11.00,Sunday
7,14.924999999999999
19,27.573063462695615
2,1, 7, 1, 0, 2,11.00,12.00,Sunday
7,14.9
19,27.541581797931283
2,1, 7, 1, 0, 2,12.00,13.00,Sunday
7,14.875
19,27.510363784632812
2,1, 7, 1, 0, 2,13.00,14.00,Sunday
7,14.85
19,27.47935931483558
2,1, 7, 1, 0, 2,14.00,15.00,Sunday
7,14.825
19,27.448527587847
2,1, 7, 1, 0, 2,15.00,16.00,Sunday
7,14.799999999999999
19,27.417835485757024
2,1, 7, 1, 0, 2,16.00,17.00,Sunday
7,14.774999999999999
19,27.38725615991056
2,1, 7, 1, 0, 2,17.00,18.00,Sunday
7,14.749999999999998
19,27.35676785131944
2,1, 7, 1, 0, 2,18.00,19.00,Sunday
7,14.725
19,27.326352928002898
2,1, 7, 1, 0, 2,19.00,20.00,Sunday
7,14.700000000000001
19,27.295997104826537
2,1, 7, 1, 0, 2,20.00,21.00,Sunday
7,14.674999999999997
19,27.26568881109151
2,1, 7, 1, 0, 2,21.00,22.00,Sunday
7,14.649999999999999
19,27.235418677066722
2,1, 7, 1, 0, 2,22.00,23.00,Sunday
7,14.625
19,27.205179116829505
2,1, 7, 1, 0, 2,23.00,24.00,Sunday
7,14.6
19,27.174963989503684
2,1, 7, 1, 0, 2,24.00,25.00,Sunday
7,14.575
19,27.14476832441447
2,1, 7, 1, 0, 2,25.00,26.00,Sunday
7,14.55
19,27.114588098291442
2,1, 7, 1, 0, 2,26.00,27.00,Sunday
7,14.524999999999999
19,27.084420054773666
2,1, 7, 1, 0, 2,27.00,28.00,Sunday
7,14.5
19,27.054261558241443
2,1, 7, 1, 0, 2,28.00,29.00,Sunday
7,14.474999999999998
19,27.024110475473112
2,1, 7, 1, 0, 2,29.00,30.00,Sunday
7,14.45
19,26.99396507984558
2,1, 7, 1, 0, 2,30.00,31.00,Sunday
7,14.425
19,26.9638239737925
2,1, 7, 1, 0, 2,31.00,32.00,Sunday
7,14.399999999999999
19,26.93368602604621
2,1, 7, 1, 0, 2,32.00,33.00,Sunday
7,14.375
19,26.903550320848044
2,1, 7, 1, 0, 2,33.00,34.00,Sunday
7,14.35
19,26.873416116847025
2,1, 7, 1, 0, 2,34.00,35.00,Sunday
7,14.325
19,26.843282813839444
2,1, 7, 1, 0, 2,35.00,36.00,Sunday
7,14.299999999999999
19,26.813149925853125
2,1, 7, 1, 0, 2,36.00,37.00,Sunday
7,14.275
19,26.783017059367435
2,1, 7, 1, 0, 2,37.00,38.00,Sunday
7,14.25
19,26.75288389568771
2,1, 7, 1, 0, 2,38.00,39.00,Sunday
7,14.224999999999998
19,26.72275017668179
2,1, 7, 1, 0, 2,39.00,40.00,Sunday
7,14.2
19,26.692615693237386
2,1, 7, 1, 0, 2,40.00,41.00,Sunday
7,14.174999999999999
19,26.66248027592038
2,1, 7, 1, 0, 2,41.00,42.00,Sunday
7,14.149999999999999
19,26.63234378741534
2,1, 7, 1, 0, 2,42.00,43.00,Sunday
7,14.125
19,26.60220611640618
2,1, 7, 1, 0, 2,43.00,44.00,Sunday
7,14.099999999999998
19,26.57206717262426
2,1, 7, 1, 0, 2,44.00,45.00,Sunday
7,14.075
19,26.54192688283989
2,1, 7, 1, 0, 2,45.00,46.00,Sunday
7,14.049999999999999
19,26.51178518761781
2,1, 7, 1, 0, 2,46.00,47.00,Sunday
7,14.024999999999999
19,26.48164203869098
2,1, 7, 1, 0, 2,47.00,48.00,Sunday
7,14.0
19,26.45149739683469
2,1, 7, 1, 0, 2,48.00,49.00,Sunday
7,13.975
19,26.421351230145678
2,1, 7, 1, 0, 2,49.00,50.00,Sunday
7,13.95
19,26.391203512648726
2,1, 7, 1, 0, 2,50.00,51.00,Sunday
7,13.925
19,26.36105422316897
2,1, 7, 1, 0, 2,51.00,52.00,Sunday
7,13.899999999999999
19,26.331018218417405
2,1, 7, 1, 0, 2,52.00,53.00,Sunday
7,13.874999999999998
19,26.30121671268656
2,1, 7, 1, 0, 2,53.00,54.00,Sunday
7,13.85
19,26.27167739707043
2,1, 7, 1, 0, 2,54.00,55.00,Sunday
7,13.825
19,26.242368491279517
2,1, 7, 1, 0, 2,55.00,56.00,Sunday
7,13.8
19,26.213242841668393
2,1, 7, 1, 0, 2,56.00,57.00,Sunday
7,13.774999999999999
19,26.1842594340885
2,1, 7, 1, 0, 2,57.00,58.00,Sunday
7,13.749999999999998
19,26.15538765799737
2,1, 7, 1, 0, 2,58.00,59.00,Sunday
7,13.725
19,26.12660503627149
2,1, 7, 1, 0, 2,59.00,60.00,Sunday
7,13.7
19,26.097894357510913
2,1, 7, 1, 0, 2, 0.00,60.00,Sunday
8,19.274887116702974
9,19.38862751276005
10,19.277411105195707
11,19.389589464768733
12,42.790813417679416
13,17.7558148956928
14,17.722251690146898
15,18.915779260423353
16,19.017879149009527
17,18.91426913619764
18,19.019262595443614
2,1, 7, 1, 0, 3, 0.00, 1.00,Sunday
7,13.68
19,26.0699340703705
2,1, 7, 1, 0, 3, 1.00, 2.00,Sunday
7,13.659999999999998
19,26.043344100003296
2,1, 7, 1, 0, 3, 2.00, 3.00,Sunday
7,13.639999999999999
19,26.017963775294067
2,1, 7, 1, 0, 3, 3.00, 4.00,Sunday
7,13.620000000000001
19,25.993487132338053
2,1, 7, 1, 0, 3, 4.00, 5.00,Sunday
7,13.599999999999998
19,25.96968058647577
2,1, 7, 1, 0, 3, 5.00, 6.00,Sunday
7,13.58
19,25.946396490665542
2,1, 7, 1, 0, 3, 6.00, 7.00,Sunday
7,13.559999999999999
19,25.92353720509177
2,1, 7, 1, 0, 3, 7.00, 8.00,Sunday
7,13.54
19,25.901027962173295
2,1, 7, 1, 0, 3, 8.00, 9.00,Sunday
7,13.52
19,25.87880557793016
2,1, 7, 1, 0, 3, 9.00,10.00,Sunday
7,13.5
19,25.856815665069735
2,1, 7, 1, 0, 3,10.00,11.00,Sunday
7,13.479999999999999
19,25.83501218727279
2,1, 7, 1, 0, 3,11.00,12.00,Sunday
7,13.46
19,25.81335689722512
2,1, 7, 1, 0, 3,12.00,13.00,Sunday
7,13.44
19,25.791818338630144
2,1, 7, 1, 0, 3,13.00,14.00,Sunday
7,13.419999999999998
19,25.770370703272555
2,1, 7, 1, 0, 3,14.00,15.00,Sunday
7,13.399999999999999
19,25.75021381420119
2,1, 7, 1, 0, 3,15.00,16.00,Sunday
7,13.38
19,25.729685313871162
2,1, 7, 1, 0, 3,16.00,17.00,Sunday
7,13.36
19,25.708296808016545
2,1, 7, 1, 0, 3,17.00,18.00,Sunday
7,13.339999999999998
19,25.68671323408881
2,1, 7, 1, 0, 3,18.00,19.00,Sunday
7,13.32
19,25.665179244197507
2,1, 7, 1, 0, 3,19.00,20.00,Sunday
7,13.3
19,25.64373024256415
2,1, 7, 1, 0, 3,20.00,21.00,Sunday
7,13.28
19,25.622337583872582
2,1, 7, 1, 0, 3,21.00,22.00,Sunday
7,13.259999999999998
19,25.600971542945814
2,1, 7, 1, 0, 3,22.00,23.00,Sunday
7,13.240000000000002
19,25.57961483706354
2,1, 7, 1, 0, 3,23.00,24.00,Sunday
7,13.219999999999999
19,25.558258724464388
2,1, 7, 1, 0, 3,24.00,25.00,Sunday
7,13.2
19,25.536897777911097
2,1, 7, 1, 0, 3,25.00,26.00,Sunday
7,13.18
19,25.51552731090434
2,1, 7, 1, 0, 3,26.00,27.00,Sunday
7,13.16
19,25.494142765437182
2,1, 7, 1, 0, 3,27.00,28.00,Sunday
7,13.139999999999999
19,25.472739809382933
2,1, 7, 1, 0, 3,28.00,29.00,Sunday
7,13.12
19,25.451314484692944
2,1, 7, 1, 0, 3,29.00,30.00,Sunday
7,13.1
19,25.429863242843293
2,1, 7, 1, 0, 3,30.00,31.00,Sunday
7,13.079999999999998
19,25.408382899834322
2,1, 7, 1, 0, 3,31.00,32.00,Sunday
7,13.06
19,25.386870566322184
2,1, 7, 1, 0, 3,32.00,33.00,Sunday
7,13.04
19,25.36532358238291
2,1, 7, 1, 0, 3,33.00,34.00,Sunday
7,13.02
19,25.343739464350392
2,1, 7, 1, 0, 3,34.00,35.00,Sunday
7,13.0
19,25.322115862069346
2,1, 7, 1, 0, 3,35.00,36.00,Sunday
7,12.98
19,25.300450523483885
2,1, 7, 1, 0, 3,36.00,37.00,Sunday
7,12.96
19,25.278741264419907
2,1, 7, 1, 0, 3,37.00,38.00,Sunday
7,12.94
19,25.256985942339583
2,1, 7, 1, 0, 3,38.00,39.00,Sunday
7,12.919999999999998
19,25.23518243327234
2,1, 7, 1, 0, 3,39.00,40.00,Sunday
7,12.899999999999999
19,25.21332861125031
2,1, 7, 1, 0, 3,40.00,41.00,Sunday
7,12.879999999999999
19,25.191422329600407
2,1, 7, 1, 0, 3,41.00,42.00,Sunday
7,12.86
19,25.169461403448157
2,1, 7, 1, 0, 3,42.00,43.00,Sunday
7,12.84
19,25.147443592801
2,1, 7, 1, 0, 3,43.00,44.00,Sunday
7,12.82
19,25.125366585573452
2,1, 7, 1, 0, 3,44.00,45.00,Sunday
7,12.8
19,25.10322797988444
2,1, 7, 1, 0, 3,45.00,46.00,Sunday
7,12.78
19,25.081025264879557
2,1, 7, 1, 0, 3,46.00,47.00,Sunday
7,12.76
19,25.05856439026894
2,1, 7, 1, 0, 3,47.00,48.00,Sunday
7,12.739999999999998
19,25.03594806915963
2,1, 7, 1, 0, 3,48.00,49.00,Sunday
7,12.72
19,25.01327253272955
2,1, 7, 1, 0, 3,49.00,50.00,Sunday
7,12.700000000000001
19,24.99057073941173
2,1, 7, 1, 0, 3,50.00,51.00,Sunday
7,12.68
19,24.967780096530532
2,1, 7, 1, 0, 3,51.00,52.00,Sunday
7,12.66
19,24.944924330223618
2,1, 7, 1, 0, 3,52.00,53.00,Sunday
7,12.64
19,24.922015732943994
2,1, 7, 1, 0, 3,53.00,54.00,Sunday
7,12.62
19,24.899048925980804
2,1, 7, 1, 0, 3,54.00,55.00,Sunday
7,12.6
19,24.876011370618684
2,1, 7, 1, 0, 3,55.00,56.00,Sunday
7,12.579999999999998
19,24.85288967463908
2,1, 7, 1, 0, 3,56.00,57.00,Sunday
7,12.56
19,24.829670994177178
2,1, 7, 1, 0, 3,57.00,58.00,Sunday
7,12.540000000000001
19,24.806341924881735
2,1, 7, 1, 0, 3,58.00,59.00,Sunday
7,12.52
19,24.782885979930775
2,1, 7, 1, 0, 3,59.00,60.00,Sunday
7,12.5
19,24.75927654213108
2,1, 7, 1, 0, 3, 0.00,60.00,Sunday
8,17.989680631045303
9,17.972433124677533
10,17.942557815408573
11,18.01783082129755
12,40.960559258172104
13,16.338612819149642
14,16.320851690044364
15,17.64081291932902
16,17.6206188103886
17,17.597187439468144
18,17.662623035815145
2,1, 7, 1, 0, 4, 0.00, 1.00,Sunday
7,12.486666666666666
19,24.736016723283836
2,1, 7, 1, 0, 4, 1.00, 2.00,Sunday
7,12.473333333333334
19,24.713151641056676
2,1, 7, 1, 0, 4, 2.00, 3.00,Sunday
7,12.46
19,24.690613317868742
2,1, 7, 1, 0, 4, 3.00, 4.00,Sunday
7,12.446666666666665
19,24.668328797381545
2,1, 7, 1, 0, 4, 4.00, 5.00,Sunday
7,12.433333333333332
19,24.646244636138864
2,1, 7, 1, 0, 4, 5.00, 6.00,Sunday
7,12.42
19,24.624323745742203
2,1, 7, 1, 0, 4, 6.00, 7.00,Sunday
7,12.406666666666666
19,24.60253827445118
2,1, 7, 1, 0, 4, 7.00, 8.00,Sunday
7,12.393333333333334
19,24.580865374844514
2,1, 7, 1, 0, 4, 8.00, 9.00,Sunday
7,12.379999999999999
19,24.55928560768701
2,1, 7, 1, 0, 4, 9.00,10.00,Sunday
7,12.366666666666667
19,24.537782475204448
2,1, 7, 1, 0, 4,10.00,11.00,Sunday
7,12.353333333333333
19,24.516342172025855
2,1, 7, 1, 0, 4,11.00,12.00,Sunday
7,12.34
19,24.49495327823712
2,1, 7, 1, 0, 4,12.00,13.00,Sunday
7,12.326666666666666
19,24.47360640351568
2,1, 7, 1, 0, 4,13.00,14.00,Sunday
7,12.313333333333333
19,24.45242472289408
2,1, 7, 1, 0, 4,14.00,15.00,Sunday
7,12.3
19,24.43153451667647
2,1, 7, 1, 0, 4,15.00,16.00,Sunday
7,12.286666666666667
19,24.410966916495344
2,1, 7, 1, 0, 4,16.00,17.00,Sunday
7,12.273333333333333
19,24.39068589635205
2,1, 7, 1, 0, 4,17.00,18.00,Sunday
7,12.26
19,24.370636315125278
2,1, 7, 1, 0, 4,18.00,19.00,Sunday
7,12.246666666666666
19,24.35076913632727
2,1, 7, 1, 0, 4,19.00,20.00,Sunday
7,12.233333333333334
19,24.331047057651123
2,1, 7, 1, 0, 4,20.00,21.00,Sunday
7,12.219999999999999
19,24.31144225061072
2,1, 7, 1, 0, 4,21.00,22.00,Sunday
7,12.206666666666665
19,24.291933153074297
2,1, 7, 1, 0, 4,22.00,23.00,Sunday
7,12.193333333333335
19,24.27250238215117
2,1, 7, 1, 0, 4,23.00,24.00,Sunday
7,12.18
19,24.25313565692299
2,1, 7, 1, 0, 4,24.00,25.00,Sunday
7,12.166666666666666
19,24.23382121731483
2,1, 7, 1, 0, 4,25.00,26.00,Sunday
7,12.153333333333332
19,24.21454941539157
2,1, 7, 1, 0, 4,26.00,27.00,Sunday
7,12.14
19,24.195312363859365
2,1, 7, 1, 0, 4,27.00,28.00,Sunday
7,12.126666666666667
19,24.176103624636443
2,1, 7, 1, 0, 4,28.00,29.00,Sunday
7,12.113333333333332
19,24.15691794277711
2,1, 7, 1, 0, 4,29.00,30.00,Sunday
7,12.1
19,24.137751026814787
2,1, 7, 1, 0, 4,30.00,31.00,Sunday
7,12.086666666666666
19,24.118599370393664
2,1, 7, 1, 0, 4,31.00,32.00,Sunday
7,12.073333333333332
19,24.099460107820203
2,1, 7, 1, 0, 4,32.00,33.00,Sunday
7,12.059999999999999
19,24.08033089671531
2,1, 7, 1, 0, 4,33.00,34.00,Sunday
7,12.046666666666667
19,24.061209822348125
2,1, 7, 1, 0, 4,34.00,35.00,Sunday
7,12.033333333333333
19,24.04209531949327
2,1, 7, 1, 0, 4,35.00,36.00,Sunday
7,12.02
19,24.022986108567338
2,1, 7, 1, 0, 4,36.00,37.00,Sunday
7,12.006666666666666
19,24.003881143438065
2,1, 7, 1, 0, 4,37.00,38.00,Sunday
7,11.993333333333332
19,23.98477956877966
2,1, 7, 1, 0, 4,38.00,39.00,Sunday
7,11.98
19,23.96568068522995
2,1, 7, 1, 0, 4,39.00,40.00,Sunday
7,11.966666666666665
19,23.946583920919217
2,1, 7, 1, 0, 4,40.00,41.00,Sunday
7,11.953333333333333
19,23.927488808203442
2,1, 7, 1, 0, 4,41.00,42.00,Sunday
7,11.94
19,23.90839496464809
2,1, 7, 1, 0, 4,42.00,43.00,Sunday
7,11.926666666666666
19,23.889302077484967
2,1, 7, 1, 0, 4,43.00,44.00,Sunday
7,11.913333333333332
19,23.870209890907283
2,1, 7, 1, 0, 4,44.00,45.00,Sunday
7,11.899999999999999
19,23.851118195683675
2,1, 7, 1, 0, 4,45.00,46.00,Sunday
7,11.886666666666667
19,23.83202682066698
2,1, 7, 1, 0, 4,46.00,47.00,Sunday
7,11.873333333333333
19,23.81293562585226
2,1, 7, 1, 0, 4,47.00,48.00,Sunday
7,11.86
19,23.793844496702018
2,1, 7, 1, 0, 4,48.00,49.00,Sunday
7,11.846666666666668
19,23.774753339505462
2,1, 7, 1, 0, 4,49.00,50.00,Sunday
7,11.833333333333332
19,23.755662077584834
2,1, 7, 1, 0, 4,50.00,51.00,Sunday
7,11.819999999999999
19,23.736570648192657
2,1, 7, 1, 0, 4,51.00,52.00,Sunday
7,11.806666666666667
19,23.71747899997442
2,1, 7, 1, 0, 4,52.00,53.00,Sunday
7,11.793333333333333
19,23.698387090894613
2,1, 7, 1, 0, 4,53.00,54.00,Sunday
7,11.78
19,23.679294886539573
2,1, 7, 1, 0, 4,54.00,55.00,Sunday
7,11.766666666666667
19,23.66020235873047
2,1, 7, 1, 0, 4,55.00,56.00,Sunday
7,11.753333333333334
19,23.6411094843884
2,1, 7, 1, 0, 4,56.00,57.00,Sunday
7,11.739999999999998
19,23.62201624460577
2,1, 7, 1, 0, 4,57.00,58.00,Sunday
7,11.726666666666665
19,23.60292262388825
2,1, 7, 1, 0, 4,58.00,59.00,Sunday
7,11.713333333333333
19,23.583828609533427
2,1, 7, 1, 0, 4,59.00,60.00,Sunday
7,11.7
19,23.564734191122653
2,1, 7, 1, 0, 4, 0.00,60.00,Sunday
8,16.94225831342799
9,16.939633218553414
10,16.9408646537566
11,16.941023607703922
12,39.327058313406624
13,15.24121030220467
14,15.228219223453898
15,16.59319114490333
16,16.59051002693163
17,16.5918511021492
18,16.591846776598626
2,1, 7, 1, 0, 5, 0.00, 1.00,Sunday
7,11.693333333333332
19,23.54584120058517
2,1, 7, 1, 0, 5, 1.00, 2.00,Sunday
7,11.686666666666666
19,23.527325864833585
2,1, 7, 1, 0, 5, 2.00, 3.00,Sunday
7,11.679999999999998
19,23.50922889936761
2,1, 7, 1, 0, 5, 3.00, 4.00,Sunday
7,11.673333333333334
19,23.491505149079725
2,1, 7, 1, 0, 5, 4.00, 5.00,Sunday
7,11.666666666666666
19,23.474086439785513
2,1, 7, 1, 0, 5, 5.00, 6.00,Sunday
7,11.66
19,23.456912099504535
2,1, 7, 1, 0, 5, 6.00, 7.00,Sunday
7,11.653333333333332
19,23.43993525621531
2,1, 7, 1, 0, 5, 7.00, 8.00,Sunday
7,11.646666666666668
19,23.423120046116917
2,1, 7, 1, 0, 5, 8.00, 9.00,Sunday
7,11.639999999999999
19,23.406437964084574
2,1, 7, 1, 0, 5, 9.00,10.00,Sunday
7,11.633333333333333
19,23.389865586734857
2,1, 7, 1, 0, 5,10.00,11.00,Sunday
7,11.626666666666667
19,23.373383424203865
2,1, 7, 1, 0, 5,11.00,12.00,Sunday
7,11.62
19,23.3569752819372
2,1, 7, 1, 0, 5,12.00,13.00,Sunday
7,11.613333333333333
19,23.340627776656124
2,1, 7, 1, 0, 5,13.00,14.00,Sunday
7,11.606666666666666
19,23.324329896628274
2,1, 7, 1, 0, 5,14.00,15.00,Sunday
7,11.599999999999998
19,23.308072601495855
2,1, 7, 1, 0, 5,15.00,16.00,Sunday
7,11.593333333333334
19,23.291848474873024
2,1, 7, 1, 0, 5,16.00,17.00,Sunday
7,11.586666666666666
19,23.275651433605006
2,1, 7, 1, 0, 5,17.00,18.00,Sunday
7,11.58
19,23.25947648855624
2,1, 7, 1, 0, 5,18.00,19.00,Sunday
7,11.573333333333334
19,23.243319548554705
2,1, 7, 1, 0, 5,19.00,20.00,Sunday
7,11.566666666666666
19,23.227177259501005
2,1, 7, 1, 0, 5,20.00,21.00,Sunday
7,11.559999999999999
19,23.211046872128392
2,1, 7, 1, 0, 5,21.00,22.00,Sunday
7,11.553333333333333
19,23.194926133275818
2,1, 7, 1, 0, 5,22.00,23.00,Sunday
7,11.546666666666667
19,23.17881319654643
2,1, 7, 1, 0, 5,23.00,24.00,Sunday
7,11.54
19,23.16270654895771
2,1, 7, 1, 0, 5,24.00,25.00,Sunday
7,11.533333333333331
19,23.14660495076535
2,1, 7, 1, 0, 5,25.00,26.00,Sunday
7,11.526666666666667
19,23.130507386120062
2,1, 7, 1, 0, 5,26.00,27.00,Sunday
7,11.520000000000001
19,23.11441302261895
2,1, 7, 1, 0, 5,27.00,28.00,Sunday
7,11.513333333333332
19,23.09832117815514
2,1, 7, 1, 0, 5,28.00,29.00,Sunday
7,11.506666666666666
19,23.08223129375281
2,1, 7, 1, 0, 5,29.00,30.00,Sunday
7,11.5
19,23.066142911308685
2,1, 7, 1, 0, 5,30.00,31.00,Sunday
7,11.493333333333334
19,23.050055655355976
2,1, 7, 1, 0, 5,31.00,32.00,Sunday
7,11.486666666666668
19,23.03396921812461
2,1, 7, 1, 0, 5,32.00,33.00,Sunday
7,11.48
19,23.01788334730256
2,1, 7, 1, 0, 5,33.00,34.00,Sunday
7,11.473333333333333
19,23.001797836010837
2,1, 7, 1, 0, 5,34.00,35.00,Sunday
7,11.466666666666667
19,22.98571251459028
2,1, 7, 1, 0, 5,35.00,36.00,Sunday
7,11.46
19,22.969730287809323
2,1, 7, 1, 0, 5,36.00,37.00,Sunday
7,11.453333333333333
19,22.95395567375973
2,1, 7, 1, 0, 5,37.00,38.00,Sunday
7,11.446666666666667
19,22.938417639840416
2,1, 7, 1, 0, 5,38.00,39.00,Sunday
7,11.440000000000001
19,22.923091593416867
2,1, 7, 1, 0, 5,39.00,40.00,Sunday
7,11.433333333333334
19,22.9079371625205
2,1, 7, 1, 0, 5,40.00,41.00,Sunday
7,11.426666666666668
19,22.89291811030914
2,1, 7, 1, 0, 5,41.00,42.00,Sunday
7,11.42
19,22.878006894026285
2,1, 7, 1, 0, 5,42.00,43.00,Sunday
7,11.413333333333334
19,22.86318301641803
2,1, 7, 1, 0, 5,43.00,44.00,Sunday
7,11.406666666666668
19,22.84843060333259
2,1, 7, 1, 0, 5,44.00,45.00,Sunday
7,11.400000000000002
19,22.83373683296332
2,1, 7, 1, 0, 5,45.00,46.00,Sunday
7,11.393333333333333
19,22.819091138919696
2,1, 7, 1, 0, 5,46.00,47.00,Sunday
7,11.386666666666667
19,22.8044847912426
2,1, 7, 1, 0, 5,47.00,48.00,Sunday
7,11.38
19,22.789910605282337
2,1, 7, 1, 0, 5,48.00,49.00,Sunday
7,11.373333333333333
19,22.77536268981021
2,1, 7, 1, 0, 5,49.00,50.00,Sunday
7,11.366666666666667
19,22.760836221847548
2,1, 7, 1, 0, 5,50.00,51.00,Sunday
7,11.360000000000001
19,22.746327253104234
2,1, 7, 1, 0, 5,51.00,52.00,Sunday
7,11.353333333333335
19,22.73183254958517
2,1, 7, 1, 0, 5,52.00,53.00,Sunday
7,11.346666666666668
19,22.717349460998776
2,1, 7, 1, 0, 5,53.00,54.00,Sunday
7,11.340000000000002
19,22.7028758147422
2,1, 7, 1, 0, 5,54.00,55.00,Sunday
7,11.333333333333334
19,22.688409829553585
2,1, 7, 1, 0, 5,55.00,56.00,Sunday
7,11.326666666666666
19,22.67395004492203
2,1, 7, 1, 0, 5,56.00,57.00,Sunday
7,11.32
19,22.659495263260972
2,1, 7, 1, 0, 5,57.00,58.00,Sunday
7,11.313333333333334
19,22.645044502508057
2,1, 7, 1, 0, 5,58.00,59.00,Sunday
7,11.306666666666667
19,22.630596957274427
2,1, 7, 1, 0, 5,59.00,60.00,Sunday
7,11.3
19,22.623295678562933
2,1, 7, 1, 0, 5, 0.00,60.00,Sunday
8,16.091976220208515
9,16.089578902925933
10,16.090776028388035
11,16.090776028388042
12,37.895817121599734
13,14.379051968677008
14,14.378131161763344
15,15.76687360939917
16,15.764265127738037
17,15.765567751802173
18,15.765567751802145
2,1, 7, 1, 0, 6, 0.00, 1.00,Sunday
7,11.295
19,22.624617920431955
2,1, 7, 1, 0, 6, 1.00, 2.00,Sunday
7,11.290000000000001
19,22.629686651649173
2,1, 7, 1, 0, 6, 2.00, 3.00,Sunday
7,11.285
19,22.634310646438735
2,1, 7, 1, 0, 6, 3.00, 4.00,Sunday
7,11.28
19,22.63674324430588
2,1, 7, 1, 0, 6, 4.00, 5.00,Sunday
7,11.275
19,22.636830160209982
2,1, 7, 1, 0, 6, 5.00, 6.00,Sunday
7,11.270000000000001
19,22.634983561284294
2,1, 7, 1, 0, 6, 6.00, 7.00,Sunday
7,11.265
19,22.631642216763918
2,1, 7, 1, 0, 6, 7.00, 8.00,Sunday
7,11.260000000000002
19,22.627126248184403
2,1, 7, 1, 0, 6, 8.00, 9.00,Sunday
7,11.255
19,22.62165507320769
2,1, 7, 1, 0, 6, 9.00,10.00,Sunday
7,11.250000000000002
19,22.615391042645452
2,1, 7, 1, 0, 6,10.00,11.00,Sunday
7,11.245000000000001
19,22.608466254472795
2,1, 7, 1, 0, 6,11.00,12.00,Sunday
7,11.240000000000002
19,22.600993037803548
2,1, 7, 1, 0, 6,12.00,13.00,Sunday
7,11.235
19,22.59306708143737
2,1, 7, 1, 0, 6,13.00,14.00,Sunday
7,11.23
19,22.584768908473293
2,1, 7, 1, 0, 6,14.00,15.00,Sunday
7,11.225000000000001
19,22.576165560874646
2,1, 7, 1, 0, 6,15.00,16.00,Sunday
7,11.22
19,22.56731255289464
2,1, 7, 1, 0, 6,16.00,17.00,Sunday
7,11.215000000000002
19,22.558255774659994
2,1, 7, 1, 0, 6,17.00,18.00,Sunday
7,11.21
19,22.549033152125983
2,1, 7, 1, 0, 6,18.00,19.00,Sunday
7,11.205000000000002
19,22.53967602520282
2,1, 7, 1, 0, 6,19.00,20.00,Sunday
7,11.200000000000001
19,22.530210279290543
2,1, 7, 1, 0, 6,20.00,21.00,Sunday
7,11.195
19,22.520657278567732
2,1, 7, 1, 0, 6,21.00,22.00,Sunday
7,11.190000000000001
19,22.511034640533516
2,1, 7, 1, 0, 6,22.00,23.00,Sunday
7,11.185
19,22.50138403567538
2,1, 7, 1, 0, 6,23.00,24.00,Sunday
7,11.18
19,22.491761861423093
2,1, 7, 1, 0, 6,24.00,25.00,Sunday
7,11.175
19,22.482202426818088
2,1, 7, 1, 0, 6,25.00,26.00,Sunday
7,11.17
19,22.47271169800023
2,1, 7, 1, 0, 6,26.00,27.00,Sunday
7,11.165000000000001
19,22.463281092801545
2,1, 7, 1, 0, 6,27.00,28.00,Sunday
7,11.16
19,22.453899113384985
2,1, 7, 1, 0, 6,28.00,29.00,Sunday
7,11.155
19,22.444556083968095
2,1, 7, 1, 0, 6,29.00,30.00,Sunday
7,11.15
19,22.43524475020865
2,1, 7, 1, 0, 6,30.00,31.00,Sunday
7,11.145
19,22.428150500686282
2,1, 7, 1, 0, 6,31.00,32.00,Sunday
7,11.14
19,22.425478578939362
2,1, 7, 1, 0, 6,32.00,33.00,Sunday
7,11.135000000000002
19,22.42954872494364
2,1, 7, 1, 0, 6,33.00,34.00,Sunday
7,11.13
19,22.439962221020604
2,1, 7, 1, 0, 6,34.00,35.00,Sunday
7,11.125
19,22.454921267847826
2,1, 7, 1, 0, 6,35.00,36.00,Sunday
7,11.120000000000001
19,22.47291926482193
2,1, 7, 1, 0, 6,36.00,37.00,Sunday
7,11.115
19,22.49308559092267
2,1, 7, 1, 0, 6,37.00,38.00,Sunday
7,11.11
19,22.514957234098233
2,1, 7, 1, 0, 6,38.00,39.00,Sunday
7,11.105
19,22.538243875703742
2,1, 7, 1, 0, 6,39.00,40.00,Sunday
7,11.100000000000001
19,22.56271455585844
2,1, 7, 1, 0, 6,40.00,41.00,Sunday
7,11.095
19,22.59296730094705
2,1, 7, 1, 0, 6,41.00,42.00,Sunday
7,11.09
19,22.62859635379393
2,1, 7, 1, 0, 6,42.00,43.00,Sunday
7,11.085
19,22.66598533713564
2,1, 7, 1, 0, 6,43.00,44.00,Sunday
7,11.08
19,22.702789554471554
2,1, 7, 1, 0, 6,44.00,45.00,Sunday
7,11.075
19,22.738363993649948
2,1, 7, 1, 0, 6,45.00,46.00,Sunday
7,11.07
19,22.772826663311832
2,1, 7, 1, 0, 6,46.00,47.00,Sunday
7,11.065000000000001
19,22.806456771372524
2,1, 7, 1, 0, 6,47.00,48.00,Sunday
7,11.06
19,22.83947259873646
2,1, 7, 1, 0, 6,48.00,49.00,Sunday
7,11.055
19,22.87201152977635
2,1, 7, 1, 0, 6,49.00,50.00,Sunday
7,11.05
19,22.904162989116262
2,1, 7, 1, 0, 6,50.00,51.00,Sunday
7,11.045
19,22.935994970432652
2,1, 7, 1, 0, 6,51.00,52.00,Sunday
7,11.04
19,22.96756547066915
2,1, 7, 1, 0, 6,52.00,53.00,Sunday
7,11.035
19,22.998925402141044
2,1, 7, 1, 0, 6,53.00,54.00,Sunday
7,11.030000000000001
19,23.03011890935618
2,1, 7, 1, 0, 6,54.00,55.00,Sunday
7,11.024999999999999
19,23.061183608618293
2,1, 7, 1, 0, 6,55.00,56.00,Sunday
7,11.020000000000001
19,23.092151296223662
2,1, 7, 1, 0, 6,56.00,57.00,Sunday
7,11.015
19,23.123048844027068
2,1, 7, 1, 0, 6,57.00,58.00,Sunday
7,11.01
19,23.154453569546977
2,1, 7, 1, 0, 6,58.00,59.00,Sunday
7,11.005
19,23.18697311492483
2,1, 7, 1, 0, 6,59.00,60.00,Sunday
7,11.0
19,23.22076904386276
2,1, 7, 1, 0, 6, 0.00,60.00,Sunday
8,15.966976682281386
9,15.876919295656059
10,16.059781101080052
11,15.87814189696294
12,37.4816540832245
13,14.224387385071005
14,14.105882612138467
15,15.518185326031649
16,15.47922328182135
17,15.549306421561418
18,15.48052365141666
2,1, 7, 1, 0, 7, 0.00, 1.00,Sunday
7,11.053333333333333
19,23.258257754716972
2,1, 7, 1, 0, 7, 1.00, 2.00,Sunday
7,11.106666666666666
19,23.30081324023127
2,1, 7, 1, 0, 7, 2.00, 3.00,Sunday
7,11.16
19,23.348423036972374
2,1, 7, 1, 0, 7, 3.00, 4.00,Sunday
7,11.213333333333335
19,23.40038873290793
2,1, 7, 1, 0, 7, 4.00, 5.00,Sunday
7,11.266666666666666
19,23.455904214820873
2,1, 7, 1, 0, 7, 5.00, 6.00,Sunday
7,11.32
19,23.514289800567617
2,1, 7, 1, 0, 7, 6.00, 7.00,Sunday
7,11.373333333333333
19,23.575019846564604
2,1, 7, 1, 0, 7, 7.00, 8.00,Sunday
7,11.426666666666666
19,23.637685612845846
2,1, 7, 1, 0, 7, 8.00, 9.00,Sunday
7,11.48
19,23.70195873241251
2,1, 7, 1, 0, 7, 9.00,10.00,Sunday
7,11.533333333333335
19,23.76756924200276
2,1, 7, 1, 0, 7,10.00,11.00,Sunday
7,11.586666666666666
19,23.839993467628677
2,1, 7, 1, 0, 7,11.00,12.00,Sunday
7,11.64
19,23.918887731571978
2,1, 7, 1, 0, 7,12.00,13.00,Sunday
7,11.693333333333333
19,23.99987768532126
2,1, 7, 1, 0, 7,13.00,14.00,Sunday
7,11.746666666666666
19,24.080180280505704
2,1, 7, 1, 0, 7,14.00,15.00,Sunday
7,11.8
19,24.15896990171775
2,1, 7, 1, 0, 7,15.00,16.00,Sunday
7,11.853333333333333
19,24.23638645007526
2,1, 7, 1, 0, 7,16.00,17.00,Sunday
7,11.906666666666666
19,24.312787284910172
2,1, 7, 1, 0, 7,17.00,18.00,Sunday
7,11.959999999999999
19,24.38846000290859