Program Version,EnergyPlus, Version 25.1.0-1c11a3d85f, YMD=2026.04.14 13:10
1,5,Environment Title[],Latitude[deg],Longitude[deg],Time Zone[],Elevation[m]
2,8,Day of Simulation[],Month[],Day of Month[],DST Indicator[1=yes 0=no],Hour[],StartMinute[],EndMinute[],DayType
3,5,Cumulative Day of Simulation[],Month[],Day of Month[],DST Indicator[1=yes 0=no],DayType  ! When Daily Report Variables Requested
4,2,Cumulative Days of Simulation[],Month[]  ! When Monthly Report Variables Requested
5,1,Cumulative Days of Simulation[] ! When Run Period Report Variables Requested
6,1,Calendar Year of Simulation[] ! When Annual Report Variables Requested
7,1,Environment,Site Outdoor Air Drybulb Temperature [C] !TimeStep
14,1,GREENHOUSE,Zone Mean Air Temperature [C] !TimeStep
End of Data Dictionary
1,RUN1,  45.73,   5.08,   1.00, 240.00
2,1,12, 1, 0, 1, 0.00, 1.00,Sunday
7,-0.008333333333333333
14,-0.4668311668322167
2,1,12, 1, 0, 1, 1.00, 2.00,Sunday
7,-0.016666666666666666
14,-0.4678181436937816
2,1,12, 1, 0, 1, 2.00, 3.00,Sunday
7,-0.025
14,-0.46919721695628147
2,1,12, 1, 0, 1, 3.00, 4.00,Sunday
7,-0.03333333333333333
14,-0.470985697441466
2,1,12, 1, 0, 1, 4.00, 5.00,Sunday
7,-0.041666666666666664
14,-0.4731746835246703
2,1,12, 1, 0, 1, 5.00, 6.00,Sunday
7,-0.05
14,-0.4757342599680108
2,1,12, 1, 0, 1, 6.00, 7.00,Sunday
7,-0.058333333333333334
14,-0.4786294627101926
2,1,12, 1, 0, 1, 7.00, 8.00,Sunday
7,-0.06666666666666667
14,-0.4818257480550782
2,1,12, 1, 0, 1, 8.00, 9.00,Sunday
7,-0.075
14,-0.4852958049692997
2,1,12, 1, 0, 1, 9.00,10.00,Sunday
7,-0.08333333333333333
14,-0.4890179172730318
2,1,12, 1, 0, 1,10.00,11.00,Sunday
7,-0.09166666666666666
14,-0.4929734407883236
2,1,12, 1, 0, 1,11.00,12.00,Sunday
7,-0.1
14,-0.4971453551786328
2,1,12, 1, 0, 1,12.00,13.00,Sunday
7,-0.10833333333333334
14,-0.5015177526280565
2,1,12, 1, 0, 1,13.00,14.00,Sunday
7,-0.11666666666666667
14,-0.5060757414620097
2,1,12, 1, 0, 1,14.00,15.00,Sunday
7,-0.125
14,-0.5108054431349136
2,1,12, 1, 0, 1,15.00,16.00,Sunday
7,-0.13333333333333333
14,-0.515693971389463
2,1,12, 1, 0, 1,16.00,17.00,Sunday
7,-0.14166666666666666
14,-0.5207293832460698
2,1,12, 1, 0, 1,17.00,18.00,Sunday
7,-0.15
14,-0.5259006169348263
2,1,12, 1, 0, 1,18.00,19.00,Sunday
7,-0.15833333333333333
14,-0.5311974288054132
2,1,12, 1, 0, 1,19.00,20.00,Sunday
7,-0.16666666666666666
14,-0.5366103341361622
2,1,12, 1, 0, 1,20.00,21.00,Sunday
7,-0.175
14,-0.5421305526331398
2,1,12, 1, 0, 1,21.00,22.00,Sunday
7,-0.18333333333333332
14,-0.5477499580723544
2,1,12, 1, 0, 1,22.00,23.00,Sunday
7,-0.19166666666666668
14,-0.5534610314701102
2,1,12, 1, 0, 1,23.00,24.00,Sunday
7,-0.2
14,-0.5592568173886182
2,1,12, 1, 0, 1,24.00,25.00,Sunday
7,-0.20833333333333334
14,-0.5651308831477959
2,1,12, 1, 0, 1,25.00,26.00,Sunday
7,-0.21666666666666667
14,-0.5710772807813688
2,1,12, 1, 0, 1,26.00,27.00,Sunday
7,-0.225
14,-0.5770905115903333
2,1,12, 1, 0, 1,27.00,28.00,Sunday
7,-0.23333333333333334
14,-0.5831654931465448
2,1,12, 1, 0, 1,28.00,29.00,Sunday
7,-0.24166666666666667
14,-0.5892975285989359
2,1,12, 1, 0, 1,29.00,30.00,Sunday
7,-0.25
14,-0.595482278138752
2,1,12, 1, 0, 1,30.00,31.00,Sunday
7,-0.25833333333333336
14,-0.6017157324858105
2,1,12, 1, 0, 1,31.00,32.00,Sunday
7,-0.26666666666666666
14,-0.6079941882645191
2,1,12, 1, 0, 1,32.00,33.00,Sunday
7,-0.275
14,-0.6143142251454462
2,1,12, 1, 0, 1,33.00,34.00,Sunday
7,-0.2833333333333333
14,-0.6206726846349764
2,1,12, 1, 0, 1,34.00,35.00,Sunday
7,-0.2916666666666667
14,-0.627066650402045
2,1,12, 1, 0, 1,35.00,36.00,Sunday
7,-0.3
14,-0.6334934300372318
2,1,12, 1, 0, 1,36.00,37.00,Sunday
7,-0.30833333333333335
14,-0.6399505381458678
2,1,12, 1, 0, 1,37.00,38.00,Sunday
7,-0.31666666666666665
14,-0.6464356806827344
2,1,12, 1, 0, 1,38.00,39.00,Sunday
7,-0.325
14,-0.6529467404414655
2,1,12, 1, 0, 1,39.00,40.00,Sunday
7,-0.3333333333333333
14,-0.6594817636174432
2,1,12, 1, 0, 1,40.00,41.00,Sunday
7,-0.3416666666666667
14,-0.6660389473679623
2,1,12, 1, 0, 1,41.00,42.00,Sunday
7,-0.35
14,-0.6726166282986449
2,1,12, 1, 0, 1,42.00,43.00,Sunday
7,-0.35833333333333334
14,-0.6792132718096642
2,1,12, 1, 0, 1,43.00,44.00,Sunday
7,-0.36666666666666664
14,-0.6858274622396696
2,1,12, 1, 0, 1,44.00,45.00,Sunday
7,-0.375
14,-0.6924579368421253
2,1,12, 1, 0, 1,45.00,46.00,Sunday
7,-0.38333333333333336
14,-0.6991034979361402
2,1,12, 1, 0, 1,46.00,47.00,Sunday
7,-0.39166666666666666
14,-0.7057630159578125
2,1,12, 1, 0, 1,47.00,48.00,Sunday
7,-0.4
14,-0.7124354320799755
2,1,12, 1, 0, 1,48.00,49.00,Sunday
7,-0.4083333333333333
14,-0.7191197835535618
2,1,12, 1, 0, 1,49.00,50.00,Sunday
7,-0.4166666666666667
14,-0.7258151957724497
2,1,12, 1, 0, 1,50.00,51.00,Sunday
7,-0.425
14,-0.7325208684283214
2,1,12, 1, 0, 1,51.00,52.00,Sunday
7,-0.43333333333333335
14,-0.7392360650215711
2,1,12, 1, 0, 1,52.00,53.00,Sunday
7,-0.44166666666666665
14,-0.745960106162631
2,1,12, 1, 0, 1,53.00,54.00,Sunday
7,-0.45
14,-0.7526923649257323
2,1,12, 1, 0, 1,54.00,55.00,Sunday
7,-0.4583333333333333
14,-0.7594322629884079
2,1,12, 1, 0, 1,55.00,56.00,Sunday
7,-0.4666666666666667
14,-0.7661792670452292
2,1,12, 1, 0, 1,56.00,57.00,Sunday
7,-0.475
14,-0.7729328853957028
2,1,12, 1, 0, 1,57.00,58.00,Sunday
7,-0.48333333333333334
14,-0.7796926647309235
2,1,12, 1, 0, 1,58.00,59.00,Sunday
7,-0.49166666666666664
14,-0.7864581871452435
2,1,12, 1, 0, 1,59.00,60.00,Sunday
7,-0.5
14,-0.7932290673756759
2,1,12, 1, 0, 2, 0.00, 1.00,Sunday
7,-0.505
14,-0.7999317953070184
2,1,12, 1, 0, 2, 1.00, 2.00,Sunday
7,-0.51
14,-0.8064302708165536
2,1,12, 1, 0, 2, 2.00, 3.00,Sunday
7,-0.515
14,-0.8126576834129189
2,1,12, 1, 0, 2, 3.00, 4.00,Sunday
7,-0.52
14,-0.8186086016079024
2,1,12, 1, 0, 2, 4.00, 5.00,Sunday
7,-0.525
14,-0.8243042261869888
2,1,12, 1, 0, 2, 5.00, 6.00,Sunday
7,-0.53
14,-0.8297702228769719
2,1,12, 1, 0, 2, 6.00, 7.00,Sunday
7,-0.535
14,-0.8350289890203048
2,1,12, 1, 0, 2, 7.00, 8.00,Sunday
7,-0.54
14,-0.8400990303169152
2,1,12, 1, 0, 2, 8.00, 9.00,Sunday
7,-0.5449999999999999
14,-0.8449961744907925
2,1,12, 1, 0, 2, 9.00,10.00,Sunday
7,-0.55
14,-0.8497345734840894
2,1,12, 1, 0, 2,10.00,11.00,Sunday
7,-0.5549999999999999
14,-0.8543271880463827
2,1,12, 1, 0, 2,11.00,12.00,Sunday
7,-0.56
14,-0.8587859630505325
2,1,12, 1, 0, 2,12.00,13.00,Sunday
7,-0.565
14,-0.8631218950412817
2,1,12, 1, 0, 2,13.00,14.00,Sunday
7,-0.57
14,-0.8673450854379234
2,1,12, 1, 0, 2,14.00,15.00,Sunday
7,-0.575
14,-0.8714648018645136
2,1,12, 1, 0, 2,15.00,16.00,Sunday
7,-0.5800000000000001
14,-0.8754895442962306
2,1,12, 1, 0, 2,16.00,17.00,Sunday
7,-0.585
14,-0.8794271096570969
2,1,12, 1, 0, 2,17.00,18.00,Sunday
7,-0.59
14,-0.8832846515861574
2,1,12, 1, 0, 2,18.00,19.00,Sunday
7,-0.595
14,-0.8870687347205908
2,1,12, 1, 0, 2,19.00,20.00,Sunday
7,-0.6000000000000001
14,-0.890785383952614
2,1,12, 1, 0, 2,20.00,21.00,Sunday
7,-0.605
14,-0.894440129305075
2,1,12, 1, 0, 2,21.00,22.00,Sunday
7,-0.61
14,-0.8980380469530401
2,1,12, 1, 0, 2,22.00,23.00,Sunday
7,-0.615
14,-0.9015837967841536
2,1,12, 1, 0, 2,23.00,24.00,Sunday
7,-0.6200000000000001
14,-0.9050816568085387
2,1,12, 1, 0, 2,24.00,25.00,Sunday
7,-0.625
14,-0.9085355546867818
2,1,12, 1, 0, 2,25.00,26.00,Sunday
7,-0.63
14,-0.9119490966200505
2,1,12, 1, 0, 2,26.00,27.00,Sunday
7,-0.635
14,-0.9153255938267671
2,1,12, 1, 0, 2,27.00,28.00,Sunday
7,-0.64
14,-0.9186680868120792
2,1,12, 1, 0, 2,28.00,29.00,Sunday
7,-0.645
14,-0.921984904479498
2,1,12, 1, 0, 2,29.00,30.00,Sunday
7,-0.65
14,-0.9252851837036017
2,1,12, 1, 0, 2,30.00,31.00,Sunday
7,-0.655
14,-0.9285758878245788
2,1,12, 1, 0, 2,31.00,32.00,Sunday
7,-0.66
14,-0.9318601855811244
2,1,12, 1, 0, 2,32.00,33.00,Sunday
7,-0.665
14,-0.9351390849563599
2,1,12, 1, 0, 2,33.00,34.00,Sunday
7,-0.67
14,-0.9384128731594631
2,1,12, 1, 0, 2,34.00,35.00,Sunday
7,-0.675
14,-0.9416817688240638
2,1,12, 1, 0, 2,35.00,36.00,Sunday
7,-0.6799999999999999
14,-0.9449460708746775
2,1,12, 1, 0, 2,36.00,37.00,Sunday
7,-0.685
14,-0.9482061287896822
2,1,12, 1, 0, 2,37.00,38.00,Sunday
7,-0.6900000000000001
14,-0.9514622942944783
2,1,12, 1, 0, 2,38.00,39.00,Sunday
7,-0.6950000000000001
14,-0.9547148963395261
2,1,12, 1, 0, 2,39.00,40.00,Sunday
7,-0.7
14,-0.9579642352302512
2,1,12, 1, 0, 2,40.00,41.00,Sunday
7,-0.7050000000000001
14,-0.9612105847709991
2,1,12, 1, 0, 2,41.00,42.00,Sunday
7,-0.71
14,-0.9644541958289262
2,1,12, 1, 0, 2,42.00,43.00,Sunday
7,-0.7150000000000001
14,-0.9676952991592369
2,1,12, 1, 0, 2,43.00,44.00,Sunday
7,-0.72
14,-0.9709341073813387
2,1,12, 1, 0, 2,44.00,45.00,Sunday
7,-0.7250000000000001
14,-0.9741708164714437
2,1,12, 1, 0, 2,45.00,46.00,Sunday
7,-0.73
14,-0.9774056070431213
2,1,12, 1, 0, 2,46.00,47.00,Sunday
7,-0.7350000000000001
14,-0.9806386455288437
2,1,12, 1, 0, 2,47.00,48.00,Sunday
7,-0.7400000000000001
14,-0.9838700852879096
2,1,12, 1, 0, 2,48.00,49.00,Sunday
7,-0.745
14,-0.9871000676389293
2,1,12, 1, 0, 2,49.00,50.00,Sunday
7,-0.75
14,-0.9903287228144233
2,1,12, 1, 0, 2,50.00,51.00,Sunday
7,-0.7550000000000001
14,-0.9935561708396684
2,1,12, 1, 0, 2,51.00,52.00,Sunday
7,-0.76
14,-0.9967825223406807
2,1,12, 1, 0, 2,52.00,53.00,Sunday
7,-0.765
14,-1.0000078792873122
2,1,12, 1, 0, 2,53.00,54.00,Sunday
7,-0.77
14,-1.0032323356768633
2,1,12, 1, 0, 2,54.00,55.00,Sunday
7,-0.7750000000000001
14,-1.0064559781631823
2,1,12, 1, 0, 2,55.00,56.00,Sunday
7,-0.78
14,-1.0096788866357276
2,1,12, 1, 0, 2,56.00,57.00,Sunday
7,-0.785
14,-1.0129011347525392
2,1,12, 1, 0, 2,57.00,58.00,Sunday
7,-0.79
14,-1.016122790430786
2,1,12, 1, 0, 2,58.00,59.00,Sunday
7,-0.7949999999999999
14,-1.0193439162984133
2,1,12, 1, 0, 2,59.00,60.00,Sunday
7,-0.8
14,-1.0225645701098849
2,1,12, 1, 0, 3, 0.00, 1.00,Sunday
7,-0.8033333333333333
14,-1.0257748417931787
2,1,12, 1, 0, 3, 1.00, 2.00,Sunday
7,-0.8066666666666668
14,-1.0289558194988688
2,1,12, 1, 0, 3, 2.00, 3.00,Sunday
7,-0.81
14,-1.032097568489
2,1,12, 1, 0, 3, 3.00, 4.00,Sunday
7,-0.8133333333333334
14,-1.0351989812429172
2,1,12, 1, 0, 3, 4.00, 5.00,Sunday
7,-0.8166666666666668
14,-1.0382629868867435
2,1,12, 1, 0, 3, 5.00, 6.00,Sunday
7,-0.8200000000000001
14,-1.0412932977110712
2,1,12, 1, 0, 3, 6.00, 7.00,Sunday
7,-0.8233333333333334
14,-1.044293206411359
2,1,12, 1, 0, 3, 7.00, 8.00,Sunday
7,-0.8266666666666667
14,-1.0472654490941753
2,1,12, 1, 0, 3, 8.00, 9.00,Sunday
7,-0.8300000000000001
14,-1.0502123664979883
2,1,12, 1, 0, 3, 9.00,10.00,Sunday
7,-0.8333333333333334
14,-1.0531360487868269
2,1,12, 1, 0, 3,10.00,11.00,Sunday
7,-0.8366666666666667
14,-1.0560384083687493
2,1,12, 1, 0, 3,11.00,12.00,Sunday
7,-0.8400000000000001
14,-1.0589212070900949
2,1,12, 1, 0, 3,12.00,13.00,Sunday
7,-0.8433333333333334
14,-1.0617860667059236
2,1,12, 1, 0, 3,13.00,14.00,Sunday
7,-0.8466666666666667
14,-1.0646344767284426
2,1,12, 1, 0, 3,14.00,15.00,Sunday
7,-0.8500000000000001
14,-1.067467803335225
2,1,12, 1, 0, 3,15.00,16.00,Sunday
7,-0.8533333333333335
14,-1.0702872990184282
2,1,12, 1, 0, 3,16.00,17.00,Sunday
7,-0.8566666666666667
14,-1.0730941120687763
2,1,12, 1, 0, 3,17.00,18.00,Sunday
7,-0.8599999999999999
14,-1.0758892953934158
2,1,12, 1, 0, 3,18.00,19.00,Sunday
7,-0.8633333333333334
14,-1.0786738145507673
2,1,12, 1, 0, 3,19.00,20.00,Sunday
7,-0.8666666666666667
14,-1.081448555056635
2,1,12, 1, 0, 3,20.00,21.00,Sunday
7,-0.87
14,-1.0842143290504713
2,1,12, 1, 0, 3,21.00,22.00,Sunday
7,-0.8733333333333333
14,-1.0869718813963396
2,1,12, 1, 0, 3,22.00,23.00,Sunday
7,-0.8766666666666667
14,-1.0897218952744723
2,1,12, 1, 0, 3,23.00,24.00,Sunday
7,-0.88
14,-1.0924649973077714
2,1,12, 1, 0, 3,24.00,25.00,Sunday
7,-0.8833333333333333
14,-1.0952017622616388
2,1,12, 1, 0, 3,25.00,26.00,Sunday
7,-0.8866666666666667
14,-1.097932717352107
2,1,12, 1, 0, 3,26.00,27.00,Sunday
7,-0.8900000000000001
14,-1.1006583461948243
2,1,12, 1, 0, 3,27.00,28.00,Sunday
7,-0.8933333333333333
14,-1.10337909242492
2,1,12, 1, 0, 3,28.00,29.00,Sunday
7,-0.8966666666666667
14,-1.1060953630151256
2,1,12, 1, 0, 3,29.00,30.00,Sunday
7,-0.9
14,-1.1088075313175956
2,1,12, 1, 0, 3,30.00,31.00,Sunday
7,-0.9033333333333333
14,-1.11151593985252
2,1,12, 1, 0, 3,31.00,32.00,Sunday
7,-0.9066666666666667
14,-1.114220902864659
2,1,12, 1, 0, 3,32.00,33.00,Sunday
7,-0.91
14,-1.116922708667152
2,1,12, 1, 0, 3,33.00,34.00,Sunday
7,-0.9133333333333333
14,-1.119621621790389
2,1,12, 1, 0, 3,34.00,35.00,Sunday
7,-0.9166666666666667
14,-1.1223178849522923
2,1,12, 1, 0, 3,35.00,36.00,Sunday
7,-0.92
14,-1.1250117208647497
2,1,12, 1, 0, 3,36.00,37.00,Sunday
7,-0.9233333333333333
14,-1.1277033338899738
2,1,12, 1, 0, 3,37.00,38.00,Sunday
7,-0.9266666666666667
14,-1.1303929115592257
2,1,12, 1, 0, 3,38.00,39.00,Sunday
7,-0.9299999999999999
14,-1.133080625965409
2,1,12, 1, 0, 3,39.00,40.00,Sunday
7,-0.9333333333333333
14,-1.1357666350401023
2,1,12, 1, 0, 3,40.00,41.00,Sunday
7,-0.9366666666666668
14,-1.1384510837245179
2,1,12, 1, 0, 3,41.00,42.00,Sunday
7,-0.94
14,-1.1411341513675741
2,1,12, 1, 0, 3,42.00,43.00,Sunday
7,-0.9433333333333334
14,-1.1438159664745386
2,1,12, 1, 0, 3,43.00,44.00,Sunday
7,-0.9466666666666667
14,-1.1464966203470448
2,1,12, 1, 0, 3,44.00,45.00,Sunday
7,-0.95
14,-1.149176180126499
2,1,12, 1, 0, 3,45.00,46.00,Sunday
7,-0.9533333333333334
14,-1.1518547217517932
2,1,12, 1, 0, 3,46.00,47.00,Sunday
7,-0.9566666666666667
14,-1.154532328474527
2,1,12, 1, 0, 3,47.00,48.00,Sunday
7,-0.96
14,-1.157209082976487
2,1,12, 1, 0, 3,48.00,49.00,Sunday
7,-0.9633333333333334
14,-1.159885062562067
2,1,12, 1, 0, 3,49.00,50.00,Sunday
7,-0.9666666666666667
14,-1.1625603378209304
2,1,12, 1, 0, 3,50.00,51.00,Sunday
7,-0.97
14,-1.165234972971874
2,1,12, 1, 0, 3,51.00,52.00,Sunday
7,-0.9733333333333334
14,-1.1679090266103542
2,1,12, 1, 0, 3,52.00,53.00,Sunday
7,-0.9766666666666667
14,-1.1705825523667193
2,1,12, 1, 0, 3,53.00,54.00,Sunday
7,-0.98
14,-1.173255599404432
2,1,12, 1, 0, 3,54.00,55.00,Sunday
7,-0.9833333333333333
14,-1.1759282128118118
2,1,12, 1, 0, 3,55.00,56.00,Sunday
7,-0.9866666666666667
14,-1.178600323026682
2,1,12, 1, 0, 3,56.00,57.00,Sunday
7,-0.99
14,-1.1812718363583772
2,1,12, 1, 0, 3,57.00,58.00,Sunday
7,-0.9933333333333333
14,-1.1839426953397596
2,1,12, 1, 0, 3,58.00,59.00,Sunday
7,-0.9966666666666667
14,-1.186612912085316
2,1,12, 1, 0, 3,59.00,60.00,Sunday
7,-1.0
14,-1.189282535942236
2,1,12, 1, 0, 4, 0.00, 1.00,Sunday
7,-1.0
14,-1.191913769272061
2,1,12, 1, 0, 4, 1.00, 2.00,Sunday
7,-1.0
14,-1.1944355358800793
2,1,12, 1, 0, 4, 2.00, 3.00,Sunday
7,-1.0
14,-1.196812198269429
2,1,12, 1, 0, 4, 3.00, 4.00,Sunday
7,-1.0
14,-1.1990407256508302
2,1,12, 1, 0, 4, 4.00, 5.00,Sunday
7,-1.0
14,-1.2011324867509063
2,1,12, 1, 0, 4, 5.00, 6.00,Sunday
7,-1.0
14,-1.203101366368633
2,1,12, 1, 0, 4, 6.00, 7.00,Sunday
7,-1.0
14,-1.2049595339453276
2,1,12, 1, 0, 4, 7.00, 8.00,Sunday
7,-1.0
14,-1.2067170570492505
2,1,12, 1, 0, 4, 8.00, 9.00,Sunday
7,-1.0
14,-1.208382537254463
2,1,12, 1, 0, 4, 9.00,10.00,Sunday
7,-1.0
14,-1.2099636498351185
2,1,12, 1, 0, 4,10.00,11.00,Sunday
7,-1.0
14,-1.2114674093537423
2,1,12, 1, 0, 4,11.00,12.00,Sunday
7,-1.0
14,-1.2129002681116325
2,1,12, 1, 0, 4,12.00,13.00,Sunday
7,-1.0
14,-1.214265714058004
2,1,12, 1, 0, 4,13.00,14.00,Sunday
7,-1.0
14,-1.2155687265587345
2,1,12, 1, 0, 4,14.00,15.00,Sunday
7,-1.0
14,-1.2168151548183297
2,1,12, 1, 0, 4,15.00,16.00,Sunday
7,-1.0
14,-1.2180111938118716
2,1,12, 1, 0, 4,16.00,17.00,Sunday
7,-1.0
14,-1.2191619493793973
2,1,12, 1, 0, 4,17.00,18.00,Sunday
7,-1.0
14,-1.2202715240628226
2,1,12, 1, 0, 4,18.00,19.00,Sunday
7,-1.0
14,-1.2213433796258526
2,1,12, 1, 0, 4,19.00,20.00,Sunday
7,-1.0
14,-1.22238060362184
2,1,12, 1, 0, 4,20.00,21.00,Sunday
7,-1.0
14,-1.2233860284395937
2,1,12, 1, 0, 4,21.00,22.00,Sunday
7,-1.0
14,-1.2243622691115303
2,1,12, 1, 0, 4,22.00,23.00,Sunday
7,-1.0
14,-1.2253117348170826
2,1,12, 1, 0, 4,23.00,24.00,Sunday
7,-1.0
14,-1.2262366383269887
2,1,12, 1, 0, 4,24.00,25.00,Sunday
7,-1.0
14,-1.227139008607075
2,1,12, 1, 0, 4,25.00,26.00,Sunday
7,-1.0
14,-1.228020705237493
2,1,12, 1, 0, 4,26.00,27.00,Sunday
7,-1.0
14,-1.2288834327412148
2,1,12, 1, 0, 4,27.00,28.00,Sunday
7,-1.0
14,-1.2297287538708026
2,1,12, 1, 0, 4,28.00,29.00,Sunday
7,-1.0
14,-1.2305581016547575
2,1,12, 1, 0, 4,29.00,30.00,Sunday
7,-1.0
14,-1.2313727903115097
2,1,12, 1, 0, 4,30.00,31.00,Sunday
7,-1.0
14,-1.2321740251883506
2,1,12, 1, 0, 4,31.00,32.00,Sunday
7,-1.0
14,-1.2329629118489422
2,1,12, 1, 0, 4,32.00,33.00,Sunday
7,-1.0
14,-1.2337404643969805
2,1,12, 1, 0, 4,33.00,34.00,Sunday
7,-1.0
14,-1.2345076131029478
2,1,12, 1, 0, 4,34.00,35.00,Sunday
7,-1.0
14,-1.235265211391468
2,1,12, 1, 0, 4,35.00,36.00,Sunday
7,-1.0
14,-1.2360140422420773
2,1,12, 1, 0, 4,36.00,37.00,Sunday
7,-1.0
14,-1.236754824052449
2,1,12, 1, 0, 4,37.00,38.00,Sunday
7,-1.0
14,-1.2374882160095348
2,1,12, 1, 0, 4,38.00,39.00,Sunday
7,-1.0
14,-1.2382148230103218
2,1,12, 1, 0, 4,39.00,40.00,Sunday
7,-1.0
14,-1.238935200170354
2,1,12, 1, 0, 4,40.00,41.00,Sunday
7,-1.0
14,-1.2396498569549779
2,1,12, 1, 0, 4,41.00,42.00,Sunday
7,-1.0
14,-1.2403592609650322
2,1,12, 1, 0, 4,42.00,43.00,Sunday
7,-1.0
14,-1.2410638414062052
2,1,12, 1, 0, 4,43.00,44.00,Sunday
7,-1.0
14,-1.2417639922686612
2,1,12, 1, 0, 4,44.00,45.00,Sunday
7,-1.0
14,-1.2424619819772076
2,1,12, 1, 0, 4,45.00,46.00,Sunday
7,-1.0
14,-1.243158481405791
2,1,12, 1, 0, 4,46.00,47.00,Sunday
7,-1.0
14,-1.2438531026116746
2,1,12, 1, 0, 4,47.00,48.00,Sunday
7,-1.0
14,-1.244543136431739
2,1,12, 1, 0, 4,48.00,49.00,Sunday
7,-1.0
14,-1.2452277981872286
2,1,12, 1, 0, 4,49.00,50.00,Sunday
7,-1.0
14,-1.2459077183795022
2,1,12, 1, 0, 4,50.00,51.00,Sunday
7,-1.0
14,-1.2465842871255026
2,1,12, 1, 0, 4,51.00,52.00,Sunday
7,-1.0
14,-1.2472584491797711
2,1,12, 1, 0, 4,52.00,53.00,Sunday
7,-1.0
14,-1.247930669106953
2,1,12, 1, 0, 4,53.00,54.00,Sunday
7,-1.0
14,-1.2486011516734525
2,1,12, 1, 0, 4,54.00,55.00,Sunday
7,-1.0
14,-1.2492700163501194
2,1,12, 1, 0, 4,55.00,56.00,Sunday
7,-1.0
14,-1.2499373713071582
2,1,12, 1, 0, 4,56.00,57.00,Sunday
7,-1.0
14,-1.2506033287485818
2,1,12, 1, 0, 4,57.00,58.00,Sunday
7,-1.0
14,-1.2512680006757908
2,1,12, 1, 0, 4,58.00,59.00,Sunday
7,-1.0
14,-1.251931493357626
2,1,12, 1, 0, 4,59.00,60.00,Sunday
7,-1.0
14,-1.252593904867267
2,1,12, 1, 0, 5, 0.00, 1.00,Sunday
7,-1.0033333333333332
14,-1.2532887961246624
2,1,12, 1, 0, 5, 1.00, 2.00,Sunday
7,-1.0066666666666666
14,-1.2540848579922799
2,1,12, 1, 0, 5, 2.00, 3.00,Sunday
7,-1.01
14,-1.255018471967786
2,1,12, 1, 0, 5, 3.00, 4.00,Sunday
7,-1.0133333333333334
14,-1.2560954430398987
2,1,12, 1, 0, 5, 4.00, 5.00,Sunday
7,-1.0166666666666666
14,-1.2573065502145275
2,1,12, 1, 0, 5, 5.00, 6.00,Sunday
7,-1.02
14,-1.258639059573838
2,1,12, 1, 0, 5, 6.00, 7.00,Sunday
7,-1.0233333333333332
14,-1.2600813396923134
2,1,12, 1, 0, 5, 7.00, 8.00,Sunday
7,-1.0266666666666666
14,-1.261623622709564
2,1,12, 1, 0, 5, 8.00, 9.00,Sunday
7,-1.03
14,-1.2632575424738381
2,1,12, 1, 0, 5, 9.00,10.00,Sunday
7,-1.0333333333333334
14,-1.2649756372756906
2,1,12, 1, 0, 5,10.00,11.00,Sunday
7,-1.0366666666666666
14,-1.2667710807360975
2,1,12, 1, 0, 5,11.00,12.00,Sunday
7,-1.04
14,-1.2686375763536533
2,1,12, 1, 0, 5,12.00,13.00,Sunday
7,-1.0433333333333334
14,-1.270569318026745
2,1,12, 1, 0, 5,13.00,14.00,Sunday
7,-1.0466666666666666
14,-1.2725678360723143
2,1,12, 1, 0, 5,14.00,15.00,Sunday
7,-1.05
14,-1.2746295465421336
2,1,12, 1, 0, 5,15.00,16.00,Sunday
7,-1.0533333333333335
14,-1.2767475609600363
2,1,12, 1, 0, 5,16.00,17.00,Sunday
7,-1.0566666666666666
14,-1.2789133140255782
2,1,12, 1, 0, 5,17.00,18.00,Sunday
7,-1.06
14,-1.281120549617966
2,1,12, 1, 0, 5,18.00,19.00,Sunday
7,-1.0633333333333332
14,-1.2833650716380935
2,1,12, 1, 0, 5,19.00,20.00,Sunday
7,-1.0666666666666667
14,-1.2856437574970063
2,1,12, 1, 0, 5,20.00,21.00,Sunday
7,-1.07
14,-1.2879539183050264
2,1,12, 1, 0, 5,21.00,22.00,Sunday
7,-1.0733333333333333
14,-1.2902930585799093
2,1,12, 1, 0, 5,22.00,23.00,Sunday
7,-1.0766666666666667
14,-1.2926567889036336
2,1,12, 1, 0, 5,23.00,24.00,Sunday
7,-1.08
14,-1.2950405034405963
2,1,12, 1, 0, 5,24.00,25.00,Sunday
7,-1.0833333333333333
14,-1.2974404938549853
2,1,12, 1, 0, 5,25.00,26.00,Sunday
7,-1.0866666666666667
14,-1.2998545493470581
2,1,12, 1, 0, 5,26.00,27.00,Sunday
7,-1.09
14,-1.3022813458987796
2,1,12, 1, 0, 5,27.00,28.00,Sunday
7,-1.0933333333333333
14,-1.3047199053534155
2,1,12, 1, 0, 5,28.00,29.00,Sunday
7,-1.0966666666666667
14,-1.307169346856293
2,1,12, 1, 0, 5,29.00,30.00,Sunday
7,-1.1
14,-1.309628825679208
2,1,12, 1, 0, 5,30.00,31.00,Sunday
7,-1.1033333333333333
14,-1.3120975388944134
2,1,12, 1, 0, 5,31.00,32.00,Sunday
7,-1.1066666666666667
14,-1.314574738372578
2,1,12, 1, 0, 5,32.00,33.00,Sunday
7,-1.1099999999999999
14,-1.3170597355025433
2,1,12, 1, 0, 5,33.00,34.00,Sunday
7,-1.1133333333333333
14,-1.3195518991488482
2,1,12, 1, 0, 5,34.00,35.00,Sunday
7,-1.1166666666666667
14,-1.322050650972581
2,1,12, 1, 0, 5,35.00,36.00,Sunday
7,-1.12
14,-1.324555460546902
2,1,12, 1, 0, 5,36.00,37.00,Sunday
7,-1.1233333333333333
14,-1.3270658410445106
2,1,12, 1, 0, 5,37.00,38.00,Sunday
7,-1.1266666666666665
14,-1.3295813455124623
2,1,12, 1, 0, 5,38.00,39.00,Sunday
7,-1.13
14,-1.3321015635748332
2,1,12, 1, 0, 5,39.00,40.00,Sunday
7,-1.1333333333333333
14,-1.334626165441471
2,1,12, 1, 0, 5,40.00,41.00,Sunday
7,-1.1366666666666667
14,-1.337154811530998
2,1,12, 1, 0, 5,41.00,42.00,Sunday
7,-1.1400000000000001
14,-1.3396871630438187
2,1,12, 1, 0, 5,42.00,43.00,Sunday
7,-1.1433333333333333
14,-1.342222892146521
2,1,12, 1, 0, 5,43.00,44.00,Sunday
7,-1.1466666666666665
14,-1.3447617123543671
2,1,12, 1, 0, 5,44.00,45.00,Sunday
7,-1.15
14,-1.3473033743212537
2,1,12, 1, 0, 5,45.00,46.00,Sunday
7,-1.1533333333333333
14,-1.3498476553994174
2,1,12, 1, 0, 5,46.00,47.00,Sunday
7,-1.1566666666666667
14,-1.352394352528627
2,1,12, 1, 0, 5,47.00,48.00,Sunday
7,-1.16
14,-1.354943278827503
2,1,12, 1, 0, 5,48.00,49.00,Sunday
7,-1.1633333333333333
14,-1.3574942620560908
2,1,12, 1, 0, 5,49.00,50.00,Sunday
7,-1.1666666666666665
14,-1.3600471436413983
2,1,12, 1, 0, 5,50.00,51.00,Sunday
7,-1.17
14,-1.3626017777544348
2,1,12, 1, 0, 5,51.00,52.00,Sunday
7,-1.1733333333333333
14,-1.3651580303560722
2,1,12, 1, 0, 5,52.00,53.00,Sunday
7,-1.1766666666666665
14,-1.3677157782551896
2,1,12, 1, 0, 5,53.00,54.00,Sunday
7,-1.1800000000000002
14,-1.3702749082213534
2,1,12, 1, 0, 5,54.00,55.00,Sunday
7,-1.1833333333333331
14,-1.3728353161681581
2,1,12, 1, 0, 5,55.00,56.00,Sunday
7,-1.1866666666666665
14,-1.3753969064066018
2,1,12, 1, 0, 5,56.00,57.00,Sunday
7,-1.19
14,-1.377959590961914
2,1,12, 1, 0, 5,57.00,58.00,Sunday
7,-1.1933333333333334
14,-1.3805232889471608
2,1,12, 1, 0, 5,58.00,59.00,Sunday
7,-1.1966666666666668
14,-1.3830879259880853
2,1,12, 1, 0, 5,59.00,60.00,Sunday
7,-1.2
14,-1.3856534336947712
2,1,12, 1, 0, 6, 0.00, 1.00,Sunday
7,-1.2033333333333334
14,-1.3882197267498262
2,1,12, 1, 0, 6, 1.00, 2.00,Sunday
7,-1.2066666666666666
14,-1.3907867343010798
2,1,12, 1, 0, 6, 2.00, 3.00,Sunday
7,-1.21
14,-1.3933544007141359
2,1,12, 1, 0, 6, 3.00, 4.00,Sunday
7,-1.2133333333333332
14,-1.39592267963334
2,1,12, 1, 0, 6, 4.00, 5.00,Sunday
7,-1.2166666666666666
14,-1.398491529709684
2,1,12, 1, 0, 6, 5.00, 6.00,Sunday
7,-1.22
14,-1.4010609127928073
2,1,12, 1, 0, 6, 6.00, 7.00,Sunday
7,-1.2233333333333332
14,-1.4036307934447365
2,1,12, 1, 0, 6, 7.00, 8.00,Sunday
7,-1.2266666666666666
14,-1.4062011388513938
2,1,12, 1, 0, 6, 8.00, 9.00,Sunday
7,-1.23
14,-1.408771918744144
2,1,12, 1, 0, 6, 9.00,10.00,Sunday
7,-1.2333333333333334
14,-1.4113431052574712
2,1,12, 1, 0, 6,10.00,11.00,Sunday
7,-1.2366666666666666
14,-1.4139146727505603
2,1,12, 1, 0, 6,11.00,12.00,Sunday
7,-1.24
14,-1.4164865976258159
2,1,12, 1, 0, 6,12.00,13.00,Sunday
7,-1.2433333333333332
14,-1.4190588581599022
2,1,12, 1, 0, 6,13.00,14.00,Sunday
7,-1.2466666666666666
14,-1.421631434350497
2,1,12, 1, 0, 6,14.00,15.00,Sunday
7,-1.25
14,-1.4242043077773248
2,1,12, 1, 0, 6,15.00,16.00,Sunday
7,-1.2533333333333334
14,-1.4267774614752882
2,1,12, 1, 0, 6,16.00,17.00,Sunday
7,-1.2566666666666666
14,-1.4293508798179706
2,1,12, 1, 0, 6,17.00,18.00,Sunday
7,-1.26
14,-1.431924548410502
2,1,12, 1, 0, 6,18.00,19.00,Sunday
7,-1.2633333333333332
14,-1.434498453991063
2,1,12, 1, 0, 6,19.00,20.00,Sunday
7,-1.2666666666666666
14,-1.4370725843402987
2,1,12, 1, 0, 6,20.00,21.00,Sunday
7,-1.27
14,-1.4396469281980289
2,1,12, 1, 0, 6,21.00,22.00,Sunday
7,-1.2733333333333332
14,-1.4422214751866882
2,1,12, 1, 0, 6,22.00,23.00,Sunday
7,-1.2766666666666666
14,-1.4447962157409115
2,1,12, 1, 0, 6,23.00,24.00,Sunday
7,-1.2799999999999998
14,-1.4473711410429027
2,1,12, 1, 0, 6,24.00,25.00,Sunday
7,-1.2833333333333332
14,-1.4499462429629022
2,1,12, 1, 0, 6,25.00,26.00,Sunday
7,-1.2866666666666666
14,-1.4525215140044168
2,1,12, 1, 0, 6,26.00,27.00,Sunday
7,-1.29
14,-1.455096947253974
2,1,12, 1, 0, 6,27.00,28.00,Sunday
7,-1.2933333333333334
14,-1.4576725363348653
2,1,12, 1, 0, 6,28.00,29.00,Sunday
7,-1.2966666666666664
14,-1.4602482753645207
2,1,12, 1, 0, 6,29.00,30.00,Sunday
7,-1.2999999999999998
14,-1.4628241589154338
2,1,12, 1, 0, 6,30.00,31.00,Sunday
7,-1.3033333333333332
14,-1.4654001819791715
2,1,12, 1, 0, 6,31.00,32.00,Sunday
7,-1.3066666666666666
14,-1.4679763399331989
2,1,12, 1, 0, 6,32.00,33.00,Sunday
7,-1.31
14,-1.4705526285104662
2,1,12, 1, 0, 6,33.00,34.00,Sunday
7,-1.3133333333333332
14,-1.4731290437714077
2,1,12, 1, 0, 6,34.00,35.00,Sunday
7,-1.3166666666666667
14,-1.475705582078099
2,1,12, 1, 0, 6,35.00,36.00,Sunday
7,-1.3199999999999998
14,-1.478282240070497
2,1,12, 1, 0, 6,36.00,37.00,Sunday
7,-1.3233333333333333
14,-1.4808590146446525
2,1,12, 1, 0, 6,37.00,38.00,Sunday
7,-1.3266666666666667
14,-1.483435902932598
2,1,12, 1, 0, 6,38.00,39.00,Sunday
7,-1.3299999999999998
14,-1.4860129022838493
2,1,12, 1, 0, 6,39.00,40.00,Sunday
7,-1.3333333333333333
14,-1.4885900102484255
2,1,12, 1, 0, 6,40.00,41.00,Sunday
7,-1.3366666666666667
14,-1.4911672245611243
2,1,12, 1, 0, 6,41.00,42.00,Sunday
7,-1.3399999999999999
14,-1.4937445431271033
2,1,12, 1, 0, 6,42.00,43.00,Sunday
7,-1.3433333333333333
14,-1.4963219640086134
2,1,12, 1, 0, 6,43.00,44.00,Sunday
7,-1.3466666666666667
14,-1.4988994854127184
2,1,12, 1, 0, 6,44.00,45.00,Sunday
7,-1.3499999999999999
14,-1.5014771056800553
2,1,12, 1, 0, 6,45.00,46.00,Sunday
7,-1.353333333333333
14,-1.5040548232744955
2,1,12, 1, 0, 6,46.00,47.00,Sunday
7,-1.3566666666666667
14,-1.506632636773558
2,1,12, 1, 0, 6,47.00,48.00,Sunday
7,-1.3599999999999999
14,-1.5092105448595987
2,1,12, 1, 0, 6,48.00,49.00,Sunday
7,-1.3633333333333333
14,-1.5117885463117056
2,1,12, 1, 0, 6,49.00,50.00,Sunday
7,-1.3666666666666667
14,-1.5143672624099882
2,1,12, 1, 0, 6,50.00,51.00,Sunday
7,-1.3699999999999999
14,-1.516947430655321
2,1,12, 1, 0, 6,51.00,52.00,Sunday
7,-1.3733333333333333
14,-1.5195295676290752
2,1,12, 1, 0, 6,52.00,53.00,Sunday
7,-1.3766666666666667
14,-1.5221137819085957
2,1,12, 1, 0, 6,53.00,54.00,Sunday
7,-1.38
14,-1.5246999577792144
2,1,12, 1, 0, 6,54.00,55.00,Sunday
7,-1.3833333333333333
14,-1.527287917292322
2,1,12, 1, 0, 6,55.00,56.00,Sunday
7,-1.3866666666666667
14,-1.529877492708126
2,1,12, 1, 0, 6,56.00,57.00,Sunday
7,-1.39
14,-1.532468541735517
2,1,12, 1, 0, 6,57.00,58.00,Sunday
7,-1.3933333333333333
14,-1.5350609426202864
2,1,12, 1, 0, 6,58.00,59.00,Sunday
7,-1.3966666666666665
14,-1.53765458732452
2,1,12, 1, 0, 6,59.00,60.00,Sunday
7,-1.4
14,-1.5402494229386405
2,1,12, 1, 0, 7, 0.00, 1.00,Sunday
7,-1.3983333333333332
14,-1.542778559886394
2,1,12, 1, 0, 7, 1.00, 2.00,Sunday
7,-1.3966666666666665
14,-1.5451556766623142
2,1,12, 1, 0, 7, 2.00, 3.00,Sunday
7,-1.3949999999999998
14,-1.5473909590829489
2,1,12, 1, 0, 7, 3.00, 4.00,Sunday
7,-1.3933333333333333
14,-1.5495146289411637
2,1,12, 1, 0, 7, 4.00, 5.00,Sunday
7,-1.3916666666666666
14,-1.551549604747122
2,1,12, 1, 0, 7, 5.00, 6.00,Sunday
7,-1.3900000000000001
14,-1.5535091650538788
2,1,12, 1, 0, 7, 6.00, 7.00,Sunday
7,-1.3883333333333332
14,-1.5554012640626784
2,1,12, 1, 0, 7, 7.00, 8.00,Sunday
7,-1.3866666666666667
14,-1.5572319210630148
2,1,12, 1, 0, 7, 8.00, 9.00,Sunday
7,-1.385
14,-1.5590066436049994
2,1,12, 1, 0, 7, 9.00,10.00,Sunday
7,-1.3833333333333333
14,-1.5607307203976069
2,1,12, 1, 0, 7,10.00,11.00,Sunday
7,-1.3816666666666666
14,-1.5624091536871167
2,1,12, 1, 0, 7,11.00,12.00,Sunday
7,-1.38
14,-1.564046576590584
2,1,12, 1, 0, 7,12.00,13.00,Sunday
7,-1.3783333333333334
14,-1.5656472310824219
2,1,12, 1, 0, 7,13.00,14.00,Sunday
7,-1.3766666666666665
14,-1.5672149877474328
2,1,12, 1, 0, 7,14.00,15.00,Sunday
7,-1.3749999999999998
14,-1.5687533796119224
2,1,12, 1, 0, 7,15.00,16.00,Sunday
7,-1.3733333333333333
14,-1.5702656355209281
2,1,12, 1, 0, 7,16.00,17.00,Sunday
7,-1.3716666666666666
14,-1.5717547090661905
2,1,12, 1, 0, 7,17.00,18.00,Sunday
7,-1.3699999999999999
14,-1.5732233034401135
2,1,12, 1, 0, 7,18.00,19.00,Sunday
7,-1.3683333333333334
14,-1.5746738933772804
2,1,12, 1, 0, 7,19.00,20.00,Sunday
7,-1.3666666666666667
14,-1.576108744980843
2,1,12, 1, 0, 7,20.00,21.00,Sunday
7,-1.3649999999999998
14,-1.5775299338212903
2,1,12, 1, 0, 7,21.00,22.00,Sunday
7,-1.3633333333333333
14,-1.5789393614871507
2,1,12, 1, 0, 7,22.00,23.00,Sunday
7,-1.3616666666666668
14,-1.5803387707032999
2,1,12, 1, 0, 7,23.00,24.00,Sunday
7,-1.3599999999999999
14,-1.5817297591250876
2,1,12, 1, 0, 7,24.00,25.00,Sunday
7,-1.3583333333333334
14,-1.5831137919180178
2,1,12, 1, 0, 7,25.00,26.00,Sunday
7,-1.3566666666666665
14,-1.5844922132294044
2,1,12, 1, 0, 7,26.00,27.00,Sunday
7,-1.355
14,-1.585866256651555
2,1,12, 1, 0, 7,27.00,28.00,Sunday
7,-1.3533333333333333
14,-1.5872370547669405
2,1,12, 1, 0, 7,28.00,29.00,Sunday
7,-1.3516666666666666
14,-1.5886056478571065
2,1,12, 1, 0, 7,29.00,30.00,Sunday
7,-1.35
14,-1.589973035706881
2,1,12, 1, 0, 7,30.00,31.00,Sunday
7,-1.3483333333333332
14,-1.5913401044504119
2,1,12, 1, 0, 7,31.00,32.00,Sunday
7,-1.3466666666666667
14,-1.5927076435009024
2,1,12, 1, 0, 7,32.00,33.00,Sunday
7,-1.345
14,-1.5940763621667011
2,1,12, 1, 0, 7,33.00,34.00,Sunday
7,-1.3433333333333333
14,-1.5954469278832015
2,1,12, 1, 0, 7,34.00,35.00,Sunday
7,-1.3416666666666668
14,-1.5968199685097453
2,1,12, 1, 0, 7,35.00,36.00,Sunday
7,-1.3399999999999999