Program Version,EnergyPlus, Version 25.1.0-1c11a3d85f, YMD=2026.04.10 14:05
1,5,Environment Title[],Latitude[deg],Longitude[deg],Time Zone[],Elevation[m]
2,8,Day of Simulation[],Month[],Day of Month[],DST Indicator[1=yes 0=no],Hour[],StartMinute[],EndMinute[],DayType
3,5,Cumulative Day of Simulation[],Month[],Day of Month[],DST Indicator[1=yes 0=no],DayType  ! When Daily Report Variables Requested
4,2,Cumulative Days of Simulation[],Month[]  ! When Monthly Report Variables Requested
5,1,Cumulative Days of Simulation[] ! When Run Period Report Variables Requested
6,1,Calendar Year of Simulation[] ! When Annual Report Variables Requested
7,1,Environment,Site Outdoor Air Drybulb Temperature [C] !TimeStep
8,1,WALL_N,Surface Inside Face Temperature [C] !Hourly
9,1,WALL_S,Surface Inside Face Temperature [C] !Hourly
10,1,WALL_E,Surface Inside Face Temperature [C] !Hourly
11,1,WALL_W,Surface Inside Face Temperature [C] !Hourly
12,1,FLOOR,Surface Inside Face Temperature [C] !Hourly
13,1,ROOF,Surface Inside Face Temperature [C] !Hourly
14,1,ROOF_GLASS,Surface Inside Face Temperature [C] !Hourly
15,1,WALL_N_GLASS,Surface Inside Face Temperature [C] !Hourly
16,1,WALL_S_GLASS,Surface Inside Face Temperature [C] !Hourly
17,1,WALL_E_GLASS,Surface Inside Face Temperature [C] !Hourly
18,1,WALL_W_GLASS,Surface Inside Face Temperature [C] !Hourly
19,1,GREENHOUSE,Zone Mean Air Temperature [C] !TimeStep
End of Data Dictionary
1,RUN PERIOD 1,  36.85,  -2.36,   1.00,  21.00
2,1, 7, 1, 0, 1, 0.00, 1.00,Sunday
7,22.716666666666665
19,28.998449416757726
2,1, 7, 1, 0, 1, 1.00, 2.00,Sunday
7,22.73333333333333
19,28.986025283475804
2,1, 7, 1, 0, 1, 2.00, 3.00,Sunday
7,22.749999999999996
19,28.972131992117212
2,1, 7, 1, 0, 1, 3.00, 4.00,Sunday
7,22.766666666666666
19,28.956700350075646
2,1, 7, 1, 0, 1, 4.00, 5.00,Sunday
7,22.783333333333335
19,28.939836519965038
2,1, 7, 1, 0, 1, 5.00, 6.00,Sunday
7,22.8
19,28.92171284442021
2,1, 7, 1, 0, 1, 6.00, 7.00,Sunday
7,22.816666666666666
19,28.902506744239197
2,1, 7, 1, 0, 1, 7.00, 8.00,Sunday
7,22.833333333333332
19,28.882376917461414
2,1, 7, 1, 0, 1, 8.00, 9.00,Sunday
7,22.849999999999998
19,28.861459445417484
2,1, 7, 1, 0, 1, 9.00,10.00,Sunday
7,22.866666666666667
19,28.839869928955626
2,1, 7, 1, 0, 1,10.00,11.00,Sunday
7,22.883333333333333
19,28.817706389223112
2,1, 7, 1, 0, 1,11.00,12.00,Sunday
7,22.9
19,28.79505189011728
2,1, 7, 1, 0, 1,12.00,13.00,Sunday
7,22.916666666666664
19,28.771976715338493
2,1, 7, 1, 0, 1,13.00,14.00,Sunday
7,22.933333333333334
19,28.748540202335175
2,1, 7, 1, 0, 1,14.00,15.00,Sunday
7,22.95
19,28.72479247571277
2,1, 7, 1, 0, 1,15.00,16.00,Sunday
7,22.96666666666667
19,28.700775409373207
2,1, 7, 1, 0, 1,16.00,17.00,Sunday
7,22.983333333333334
19,28.67652432086438
2,1, 7, 1, 0, 1,17.00,18.00,Sunday
7,23.0
19,28.652069097586352
2,1, 7, 1, 0, 1,18.00,19.00,Sunday
7,23.016666666666666
19,28.627434950491903
2,1, 7, 1, 0, 1,19.00,20.00,Sunday
7,23.033333333333335
19,28.60264309099946
2,1, 7, 1, 0, 1,20.00,21.00,Sunday
7,23.05
19,28.577711063831085
2,1, 7, 1, 0, 1,21.00,22.00,Sunday
7,23.066666666666663
19,28.55265386125067
2,1, 7, 1, 0, 1,22.00,23.00,Sunday
7,23.083333333333336
19,28.52748395053588
2,1, 7, 1, 0, 1,23.00,24.00,Sunday
7,23.1
19,28.50221177203297
2,1, 7, 1, 0, 1,24.00,25.00,Sunday
7,23.116666666666667
19,28.47684633763857
2,1, 7, 1, 0, 1,25.00,26.00,Sunday
7,23.133333333333333
19,28.45139518106107
2,1, 7, 1, 0, 1,26.00,27.00,Sunday
7,23.15
19,28.425864413794212
2,1, 7, 1, 0, 1,27.00,28.00,Sunday
7,23.166666666666664
19,28.400259090899212
2,1, 7, 1, 0, 1,28.00,29.00,Sunday
7,23.18333333333333
19,28.374583660206227
2,1, 7, 1, 0, 1,29.00,30.00,Sunday
7,23.2
19,28.349040057129457
2,1, 7, 1, 0, 1,30.00,31.00,Sunday
7,23.21666666666667
19,28.323792359914254
2,1, 7, 1, 0, 1,31.00,32.00,Sunday
7,23.233333333333334
19,28.298873244459912
2,1, 7, 1, 0, 1,32.00,33.00,Sunday
7,23.25
19,28.274242790746445
2,1, 7, 1, 0, 1,33.00,34.00,Sunday
7,23.266666666666666
19,28.249843714097715
2,1, 7, 1, 0, 1,34.00,35.00,Sunday
7,23.28333333333333
19,28.225625406457496
2,1, 7, 1, 0, 1,35.00,36.00,Sunday
7,23.299999999999997
19,28.200957154123284
2,1, 7, 1, 0, 1,36.00,37.00,Sunday
7,23.316666666666666
19,28.46147193272575
2,1, 7, 1, 0, 1,37.00,38.00,Sunday
7,23.333333333333332
19,28.916310113514992
2,1, 7, 1, 0, 1,38.00,39.00,Sunday
7,23.349999999999998
19,29.417549718445873
2,1, 7, 1, 0, 1,39.00,40.00,Sunday
7,23.366666666666667
19,29.884298255714718
2,1, 7, 1, 0, 1,40.00,41.00,Sunday
7,23.383333333333333
19,30.294195322407386
2,1, 7, 1, 0, 1,41.00,42.00,Sunday
7,23.4
19,30.65049144698254
2,1, 7, 1, 0, 1,42.00,43.00,Sunday
7,23.416666666666664
19,30.961786458064164
2,1, 7, 1, 0, 1,43.00,44.00,Sunday
7,23.433333333333334
19,31.235131608817092
2,1, 7, 1, 0, 1,44.00,45.00,Sunday
7,23.45
19,31.475423676564866
2,1, 7, 1, 0, 1,45.00,46.00,Sunday
7,23.46666666666667
19,31.686318822154384
2,1, 7, 1, 0, 1,46.00,47.00,Sunday
7,23.48333333333333
19,31.870929541147213
2,1, 7, 1, 0, 1,47.00,48.00,Sunday
7,23.5
19,32.03209721447207
2,1, 7, 1, 0, 1,48.00,49.00,Sunday
7,23.516666666666666
19,32.1724393882085
2,1, 7, 1, 0, 1,49.00,50.00,Sunday
7,23.53333333333333
19,32.2943328642997
2,1, 7, 1, 0, 1,50.00,51.00,Sunday
7,23.55
19,32.39991134058423
2,1, 7, 1, 0, 1,51.00,52.00,Sunday
7,23.566666666666666
19,32.49107426073548
2,1, 7, 1, 0, 1,52.00,53.00,Sunday
7,23.583333333333332
19,32.56929702333193
2,1, 7, 1, 0, 1,53.00,54.00,Sunday
7,23.599999999999998
19,32.63619459841468
2,1, 7, 1, 0, 1,54.00,55.00,Sunday
7,23.616666666666667
19,32.69321014040892
2,1, 7, 1, 0, 1,55.00,56.00,Sunday
7,23.633333333333333
19,32.741558831155544
2,1, 7, 1, 0, 1,56.00,57.00,Sunday
7,23.65
19,32.78227030430998
2,1, 7, 1, 0, 1,57.00,58.00,Sunday
7,23.666666666666668
19,32.81623764771011
2,1, 7, 1, 0, 1,58.00,59.00,Sunday
7,23.683333333333334
19,32.8442482432693
2,1, 7, 1, 0, 1,59.00,60.00,Sunday
7,23.7
19,32.866999988958675
2,1, 7, 1, 0, 1, 0.00,60.00,Sunday
8,20.158639007879387
9,20.16305196115286
10,20.16565533624132
11,20.174378132081184
12,42.426725092736
13,19.57295842893112
14,19.815524686987406
15,20.362079396097837
16,20.36213049634325
17,20.365896225816947
18,20.379358025282958
2,1, 7, 1, 0, 2, 0.00, 1.00,Sunday
7,23.703333333333333
19,32.885120402976014
2,1, 7, 1, 0, 2, 1.00, 2.00,Sunday
7,23.706666666666667
19,32.89916471813462
2,1, 7, 1, 0, 2, 2.00, 3.00,Sunday
7,23.709999999999997
19,32.90961639980138
2,1, 7, 1, 0, 2, 3.00, 4.00,Sunday
7,23.713333333333335
19,32.916898044935785
2,1, 7, 1, 0, 2, 4.00, 5.00,Sunday
7,23.716666666666665
19,32.921381355351556
2,1, 7, 1, 0, 2, 5.00, 6.00,Sunday
7,23.72
19,32.923394421431894
2,1, 7, 1, 0, 2, 6.00, 7.00,Sunday
7,23.723333333333333
19,32.92322711479366
2,1, 7, 1, 0, 2, 7.00, 8.00,Sunday
7,23.726666666666667
19,32.92113548373025
2,1, 7, 1, 0, 2, 8.00, 9.00,Sunday
7,23.73
19,32.917345604529515
2,1, 7, 1, 0, 2, 9.00,10.00,Sunday
7,23.733333333333334
19,32.91205703658721
2,1, 7, 1, 0, 2,10.00,11.00,Sunday
7,23.736666666666665
19,32.90544591535382
2,1, 7, 1, 0, 2,11.00,12.00,Sunday
7,23.740000000000002
19,32.89766770044599
2,1, 7, 1, 0, 2,12.00,13.00,Sunday
7,23.743333333333332
19,32.888859605124026
2,1, 7, 1, 0, 2,13.00,14.00,Sunday
7,23.746666666666663
19,32.87914273995428
2,1, 7, 1, 0, 2,14.00,15.00,Sunday
7,23.75
19,32.86862400385455
2,1, 7, 1, 0, 2,15.00,16.00,Sunday
7,23.753333333333337
19,32.85739775273287
2,1, 7, 1, 0, 2,16.00,17.00,Sunday
7,23.756666666666668
19,32.84554727218511
2,1, 7, 1, 0, 2,17.00,18.00,Sunday
7,23.759999999999998
19,32.83314607733545
2,1, 7, 1, 0, 2,18.00,19.00,Sunday
7,23.763333333333332
19,32.820259060072026
2,1, 7, 1, 0, 2,19.00,20.00,Sunday
7,23.766666666666666
19,32.806943501540196
2,1, 7, 1, 0, 2,20.00,21.00,Sunday
7,23.769999999999996
19,32.79324996568377
2,1, 7, 1, 0, 2,21.00,22.00,Sunday
7,23.77333333333333
19,32.77922308779261
2,1, 7, 1, 0, 2,22.00,23.00,Sunday
7,23.776666666666667
19,32.76490227038786
2,1, 7, 1, 0, 2,23.00,24.00,Sunday
7,23.78
19,32.750322297333945
2,1, 7, 1, 0, 2,24.00,25.00,Sunday
7,23.78333333333333
19,32.73551387578764
2,1, 7, 1, 0, 2,25.00,26.00,Sunday
7,23.786666666666665
19,32.720504114469314
2,1, 7, 1, 0, 2,26.00,27.00,Sunday
7,23.79
19,32.705316945741465
2,1, 7, 1, 0, 2,27.00,28.00,Sunday
7,23.79333333333333
19,32.68997349810074
2,1, 7, 1, 0, 2,28.00,29.00,Sunday
7,23.796666666666663
19,32.67449242491426
2,1, 7, 1, 0, 2,29.00,30.00,Sunday
7,23.799999999999997
19,32.658890194543616
2,1, 7, 1, 0, 2,30.00,31.00,Sunday
7,23.803333333333335
19,32.64318134639533
2,1, 7, 1, 0, 2,31.00,32.00,Sunday
7,23.806666666666665
19,32.62737871690371
2,1, 7, 1, 0, 2,32.00,33.00,Sunday
7,23.81
19,32.61149363897929
2,1, 7, 1, 0, 2,33.00,34.00,Sunday
7,23.813333333333333
19,32.595536118040876
2,1, 7, 1, 0, 2,34.00,35.00,Sunday
7,23.816666666666663
19,32.57951498738221
2,1, 7, 1, 0, 2,35.00,36.00,Sunday
7,23.82
19,32.563438045300686
2,1, 7, 1, 0, 2,36.00,37.00,Sunday
7,23.82333333333333
19,32.54731217612902
2,1, 7, 1, 0, 2,37.00,38.00,Sunday
7,23.826666666666668
19,32.531143457060075
2,1, 7, 1, 0, 2,38.00,39.00,Sunday
7,23.83
19,32.51493725243099
2,1, 7, 1, 0, 2,39.00,40.00,Sunday
7,23.833333333333332
19,32.49869829693781
2,1, 7, 1, 0, 2,40.00,41.00,Sunday
7,23.836666666666666
19,32.48243076907764
2,1, 7, 1, 0, 2,41.00,42.00,Sunday
7,23.839999999999996
19,32.46613835596216
2,1, 7, 1, 0, 2,42.00,43.00,Sunday
7,23.843333333333334
19,32.449824310512135
2,1, 7, 1, 0, 2,43.00,44.00,Sunday
7,23.846666666666664
19,32.4334915019232
2,1, 7, 1, 0, 2,44.00,45.00,Sunday
7,23.849999999999998
19,32.417142460186
2,1, 7, 1, 0, 2,45.00,46.00,Sunday
7,23.85333333333333
19,32.40077941535266
2,1, 7, 1, 0, 2,46.00,47.00,Sunday
7,23.856666666666662
19,32.384404332157345
2,1, 7, 1, 0, 2,47.00,48.00,Sunday
7,23.86
19,32.36801894052525
2,1, 7, 1, 0, 2,48.00,49.00,Sunday
7,23.86333333333333
19,32.35162476243986
2,1, 7, 1, 0, 2,49.00,50.00,Sunday
7,23.866666666666667
19,32.3352231355779
2,1, 7, 1, 0, 2,50.00,51.00,Sunday
7,23.869999999999997
19,32.31881523406878
2,1, 7, 1, 0, 2,51.00,52.00,Sunday
7,23.87333333333333
19,32.302761867589375
2,1, 7, 1, 0, 2,52.00,53.00,Sunday
7,23.876666666666665
19,32.28746111928404
2,1, 7, 1, 0, 2,53.00,54.00,Sunday
7,23.879999999999995
19,32.27308012659358
2,1, 7, 1, 0, 2,54.00,55.00,Sunday
7,23.883333333333333
19,32.25959776673644
2,1, 7, 1, 0, 2,55.00,56.00,Sunday
7,23.886666666666663
19,32.24691735961459
2,1, 7, 1, 0, 2,56.00,57.00,Sunday
7,23.89
19,32.234934987640806
2,1, 7, 1, 0, 2,57.00,58.00,Sunday
7,23.89333333333333
19,32.22356176837701
2,1, 7, 1, 0, 2,58.00,59.00,Sunday
7,23.896666666666665
19,32.212724492325734
2,1, 7, 1, 0, 2,59.00,60.00,Sunday
7,23.9
19,32.20236122231768
2,1, 7, 1, 0, 2, 0.00,60.00,Sunday
8,26.038199494679027
9,26.066627241731293
10,26.058440024416647
11,26.086675031095734
12,41.97840530141142
13,24.292054823792185
14,24.29297371060707
15,25.790691721068544
16,25.814151052186713
17,25.812371361879762
18,25.836288094059622
2,1, 7, 1, 0, 3, 0.00, 1.00,Sunday
7,23.9
19,32.19235549678552
2,1, 7, 1, 0, 3, 1.00, 2.00,Sunday
7,23.9
19,32.18259580922738
2,1, 7, 1, 0, 3, 2.00, 3.00,Sunday
7,23.9
19,32.17301483802028
2,1, 7, 1, 0, 3, 3.00, 4.00,Sunday
7,23.9
19,32.16357941429358
2,1, 7, 1, 0, 3, 4.00, 5.00,Sunday
7,23.9
19,32.15427210874454
2,1, 7, 1, 0, 3, 5.00, 6.00,Sunday
7,23.9
19,32.14508039241123
2,1, 7, 1, 0, 3, 6.00, 7.00,Sunday
7,23.9
19,32.13599289613929
2,1, 7, 1, 0, 3, 7.00, 8.00,Sunday
7,23.9
19,32.12699891370832
2,1, 7, 1, 0, 3, 8.00, 9.00,Sunday
7,23.9
19,32.118088668431824
2,1, 7, 1, 0, 3, 9.00,10.00,Sunday
7,23.900000000000002
19,32.10925346986622
2,1, 7, 1, 0, 3,10.00,11.00,Sunday
7,23.9
19,32.10048566604999
2,1, 7, 1, 0, 3,11.00,12.00,Sunday
7,23.900000000000002
19,32.091778520957966
2,1, 7, 1, 0, 3,12.00,13.00,Sunday
7,23.9
19,32.08312627717168
2,1, 7, 1, 0, 3,13.00,14.00,Sunday
7,23.9
19,32.074523962626884
2,1, 7, 1, 0, 3,14.00,15.00,Sunday
7,23.9
19,32.06596718643227
2,1, 7, 1, 0, 3,15.00,16.00,Sunday
7,23.9
19,32.057452038936255
2,1, 7, 1, 0, 3,16.00,17.00,Sunday
7,23.9
19,32.04897503933584
2,1, 7, 1, 0, 3,17.00,18.00,Sunday
7,23.899999999999995
19,32.04053309480356
2,1, 7, 1, 0, 3,18.00,19.00,Sunday
7,23.9
19,32.032123460625996
2,1, 7, 1, 0, 3,19.00,20.00,Sunday
7,23.9
19,32.023743701504294
2,1, 7, 1, 0, 3,20.00,21.00,Sunday
7,23.9
19,32.015391655860014
2,1, 7, 1, 0, 3,21.00,22.00,Sunday
7,23.9
19,32.00706540401186
2,1, 7, 1, 0, 3,22.00,23.00,Sunday
7,23.9
19,31.99876324016208
2,1, 7, 1, 0, 3,23.00,24.00,Sunday
7,23.9
19,31.99048364775874
2,1, 7, 1, 0, 3,24.00,25.00,Sunday
7,23.9
19,31.98222527776729
2,1, 7, 1, 0, 3,25.00,26.00,Sunday
7,23.9
19,31.973986929463003
2,1, 7, 1, 0, 3,26.00,27.00,Sunday
7,23.9
19,31.965767533433205
2,1, 7, 1, 0, 3,27.00,28.00,Sunday
7,23.9
19,31.95756613653009
2,1, 7, 1, 0, 3,28.00,29.00,Sunday
7,23.9
19,31.949381888551834
2,1, 7, 1, 0, 3,29.00,30.00,Sunday
7,23.9
19,31.941214030453406
2,1, 7, 1, 0, 3,30.00,31.00,Sunday
7,23.9
19,31.933061883912792
2,1, 7, 1, 0, 3,31.00,32.00,Sunday
7,23.9
19,31.924924842095805
2,1, 7, 1, 0, 3,32.00,33.00,Sunday
7,23.9
19,31.916802361482528
2,1, 7, 1, 0, 3,33.00,34.00,Sunday
7,23.9
19,31.908693954633026
2,1, 7, 1, 0, 3,34.00,35.00,Sunday
7,23.9
19,31.900599183784312
2,1, 7, 1, 0, 3,35.00,36.00,Sunday
7,23.9
19,31.892517655182992
2,1, 7, 1, 0, 3,36.00,37.00,Sunday
7,23.9
19,31.884449014069318
2,1, 7, 1, 0, 3,37.00,38.00,Sunday
7,23.9
19,31.87639294023806
2,1, 7, 1, 0, 3,38.00,39.00,Sunday
7,23.9
19,31.868349144109235
2,1, 7, 1, 0, 3,39.00,40.00,Sunday
7,23.9
19,31.860317363250886
2,1, 7, 1, 0, 3,40.00,41.00,Sunday
7,23.9
19,31.852297359301208
2,1, 7, 1, 0, 3,41.00,42.00,Sunday
7,23.9
19,31.84428891524461
2,1, 7, 1, 0, 3,42.00,43.00,Sunday
7,23.9
19,31.836291833000946
2,1, 7, 1, 0, 3,43.00,44.00,Sunday
7,23.9
19,31.828305931291762
2,1, 7, 1, 0, 3,44.00,45.00,Sunday
7,23.9
19,31.820331043751853
2,1, 7, 1, 0, 3,45.00,46.00,Sunday
7,23.9
19,31.81236701725775
2,1, 7, 1, 0, 3,46.00,47.00,Sunday
7,23.9
19,31.80441371044845
2,1, 7, 1, 0, 3,47.00,48.00,Sunday
7,23.9
19,31.79647099241604
2,1, 7, 1, 0, 3,48.00,49.00,Sunday
7,23.9
19,31.78853874154643
2,1, 7, 1, 0, 3,49.00,50.00,Sunday
7,23.9
19,31.78061684449343
2,1, 7, 1, 0, 3,50.00,51.00,Sunday
7,23.9
19,31.772705195270607
2,1, 7, 1, 0, 3,51.00,52.00,Sunday
7,23.9
19,31.76480369444725
2,1, 7, 1, 0, 3,52.00,53.00,Sunday
7,23.9
19,31.756912248436624
2,1, 7, 1, 0, 3,53.00,54.00,Sunday
7,23.9
19,31.749030768865804
2,1, 7, 1, 0, 3,54.00,55.00,Sunday
7,23.9
19,31.74115917201742
2,1, 7, 1, 0, 3,55.00,56.00,Sunday
7,23.9
19,31.73329737833578
2,1, 7, 1, 0, 3,56.00,57.00,Sunday
7,23.9
19,31.72544531198918
2,1, 7, 1, 0, 3,57.00,58.00,Sunday
7,23.9
19,31.717602900482355
2,1, 7, 1, 0, 3,58.00,59.00,Sunday
7,23.9
19,31.709770074313
2,1, 7, 1, 0, 3,59.00,60.00,Sunday
7,23.9
19,31.70194676666761
2,1, 7, 1, 0, 3, 0.00,60.00,Sunday
8,25.682515300432517
9,25.685535142425884
10,25.70128782737341
11,25.703973445290494
12,41.013609562486224
13,23.88474905028447
14,23.880217536553747
15,25.458938216683574
16,25.459914000081664
17,25.47906389954865
18,25.480310431286384
2,1, 7, 1, 0, 4, 0.00, 1.00,Sunday
7,23.904999999999998
19,31.69420215339676
2,1, 7, 1, 0, 4, 1.00, 2.00,Sunday
7,23.909999999999997
19,31.6866101736776
2,1, 7, 1, 0, 4, 2.00, 3.00,Sunday
7,23.915
19,31.67920229497314
2,1, 7, 1, 0, 4, 3.00, 4.00,Sunday
7,23.919999999999998
19,31.67197572890036
2,1, 7, 1, 0, 4, 4.00, 5.00,Sunday
7,23.924999999999997
19,31.664913325306216
2,1, 7, 1, 0, 4, 5.00, 6.00,Sunday
7,23.93
19,31.65799592281452
2,1, 7, 1, 0, 4, 6.00, 7.00,Sunday
7,23.935
19,31.651206654061728
2,1, 7, 1, 0, 4, 7.00, 8.00,Sunday
7,23.939999999999998
19,31.644531321951426
2,1, 7, 1, 0, 4, 8.00, 9.00,Sunday
7,23.944999999999997
19,31.637957756031284
2,1, 7, 1, 0, 4, 9.00,10.00,Sunday
7,23.950000000000003
19,31.631457157711782
2,1, 7, 1, 0, 4,10.00,11.00,Sunday
7,23.955
19,31.62503645701904
2,1, 7, 1, 0, 4,11.00,12.00,Sunday
7,23.96
19,31.618698990950858
2,1, 7, 1, 0, 4,12.00,13.00,Sunday
7,23.964999999999996
19,31.61243604189891
2,1, 7, 1, 0, 4,13.00,14.00,Sunday
7,23.97
19,31.60622156833454
2,1, 7, 1, 0, 4,14.00,15.00,Sunday
7,23.974999999999998
19,31.600030862233886
2,1, 7, 1, 0, 4,15.00,16.00,Sunday
7,23.98
19,31.59385108352834
2,1, 7, 1, 0, 4,16.00,17.00,Sunday
7,23.985
19,31.587678329112816
2,1, 7, 1, 0, 4,17.00,18.00,Sunday
7,23.989999999999995
19,31.58151247406569
2,1, 7, 1, 0, 4,18.00,19.00,Sunday
7,23.995
19,31.57535416568817
2,1, 7, 1, 0, 4,19.00,20.00,Sunday
7,24.0
19,31.569203834325588
2,1, 7, 1, 0, 4,20.00,21.00,Sunday
7,24.005
19,31.563061627537675
2,1, 7, 1, 0, 4,21.00,22.00,Sunday
7,24.009999999999998
19,31.556927556140955
2,1, 7, 1, 0, 4,22.00,23.00,Sunday
7,24.015
19,31.550801599188965
2,1, 7, 1, 0, 4,23.00,24.00,Sunday
7,24.019999999999996
19,31.54468374196805
2,1, 7, 1, 0, 4,24.00,25.00,Sunday
7,24.025
19,31.53857397928983
2,1, 7, 1, 0, 4,25.00,26.00,Sunday
7,24.03
19,31.532472309816576
2,1, 7, 1, 0, 4,26.00,27.00,Sunday
7,24.035
19,31.52637873160621
2,1, 7, 1, 0, 4,27.00,28.00,Sunday
7,24.04
19,31.520293240330325
2,1, 7, 1, 0, 4,28.00,29.00,Sunday
7,24.044999999999998
19,31.51421582905034
2,1, 7, 1, 0, 4,29.00,30.00,Sunday
7,24.049999999999997
19,31.508146488510654
2,1, 7, 1, 0, 4,30.00,31.00,Sunday
7,24.055
19,31.50208520747361
2,1, 7, 1, 0, 4,31.00,32.00,Sunday
7,24.06
19,31.49603197298226
2,1, 7, 1, 0, 4,32.00,33.00,Sunday
7,24.064999999999998
19,31.489986770564826
2,1, 7, 1, 0, 4,33.00,34.00,Sunday
7,24.07
19,31.483949584408464
2,1, 7, 1, 0, 4,34.00,35.00,Sunday
7,24.075
19,31.477920397517188
2,1, 7, 1, 0, 4,35.00,36.00,Sunday
7,24.08
19,31.471899191857652
2,1, 7, 1, 0, 4,36.00,37.00,Sunday
7,24.085
19,31.465885948491692
2,1, 7, 1, 0, 4,37.00,38.00,Sunday
7,24.09
19,31.459880647695595
2,1, 7, 1, 0, 4,38.00,39.00,Sunday
7,24.095
19,31.45388326906632
2,1, 7, 1, 0, 4,39.00,40.00,Sunday
7,24.1
19,31.447893791615765
2,1, 7, 1, 0, 4,40.00,41.00,Sunday
7,24.104999999999997
19,31.44191219385403
2,1, 7, 1, 0, 4,41.00,42.00,Sunday
7,24.11
19,31.43593845386322
2,1, 7, 1, 0, 4,42.00,43.00,Sunday
7,24.115000000000002
19,31.429972549362663
2,1, 7, 1, 0, 4,43.00,44.00,Sunday
7,24.12
19,31.424014457766066
2,1, 7, 1, 0, 4,44.00,45.00,Sunday
7,24.125
19,31.418064156232177
2,1, 7, 1, 0, 4,45.00,46.00,Sunday
7,24.13
19,31.412121621709066
2,1, 7, 1, 0, 4,46.00,47.00,Sunday
7,24.134999999999998
19,31.406186830973567
2,1, 7, 1, 0, 4,47.00,48.00,Sunday
7,24.139999999999997
19,31.40025976066598
2,1, 7, 1, 0, 4,48.00,49.00,Sunday
7,24.145
19,31.39434038732034
2,1, 7, 1, 0, 4,49.00,50.00,Sunday
7,24.15
19,31.38842868739114
2,1, 7, 1, 0, 4,50.00,51.00,Sunday
7,24.155
19,31.382524637276866
2,1, 7, 1, 0, 4,51.00,52.00,Sunday
7,24.159999999999997
19,31.376628213340368
2,1, 7, 1, 0, 4,52.00,53.00,Sunday
7,24.165
19,31.370739391927007
2,1, 7, 1, 0, 4,53.00,54.00,Sunday
7,24.17
19,31.36485814938066
2,1, 7, 1, 0, 4,54.00,55.00,Sunday
7,24.174999999999997
19,31.358984462057503
2,1, 7, 1, 0, 4,55.00,56.00,Sunday
7,24.18
19,31.353118306337965
2,1, 7, 1, 0, 4,56.00,57.00,Sunday
7,24.185
19,31.34725965863769
2,1, 7, 1, 0, 4,57.00,58.00,Sunday
7,24.19
19,31.34140849541655
2,1, 7, 1, 0, 4,58.00,59.00,Sunday
7,24.194999999999997
19,31.33556479318668
2,1, 7, 1, 0, 4,59.00,60.00,Sunday
7,24.2
19,31.329728528519478
2,1, 7, 1, 0, 4, 0.00,60.00,Sunday
8,25.454671073929212
9,25.471295781777123
10,25.491694148988838
11,25.469203279468285
12,40.354521583858826
13,23.673379359610585
14,23.663724015862453
15,25.260152500172914
16,25.274564438768177
17,25.295989672117745
18,25.276553664302366
2,1, 7, 1, 0, 5, 0.00, 1.00,Sunday
7,24.21333333333333
19,31.324031565897645
2,1, 7, 1, 0, 5, 1.00, 2.00,Sunday
7,24.226666666666667
19,31.31861674594975
2,1, 7, 1, 0, 5, 2.00, 3.00,Sunday
7,24.24
19,31.313546391528888
2,1, 7, 1, 0, 5, 3.00, 4.00,Sunday
7,24.253333333333334
19,31.308816106231337
2,1, 7, 1, 0, 5, 4.00, 5.00,Sunday
7,24.266666666666662
19,31.304392649742283
2,1, 7, 1, 0, 5, 5.00, 6.00,Sunday
7,24.28
19,31.300238228641447
2,1, 7, 1, 0, 5, 6.00, 7.00,Sunday
7,24.293333333333333
19,31.296319316743602
2,1, 7, 1, 0, 5, 7.00, 8.00,Sunday
7,24.306666666666665
19,31.292607642118973
2,1, 7, 1, 0, 5, 8.00, 9.00,Sunday
7,24.32
19,31.28907900694937
2,1, 7, 1, 0, 5, 9.00,10.00,Sunday
7,24.333333333333336
19,31.28571220469074
2,1, 7, 1, 0, 5,10.00,11.00,Sunday
7,24.346666666666664
19,31.282488418305828
2,1, 7, 1, 0, 5,11.00,12.00,Sunday
7,24.36
19,31.279390914422674
2,1, 7, 1, 0, 5,12.00,13.00,Sunday
7,24.373333333333335
19,31.27640484266464
2,1, 7, 1, 0, 5,13.00,14.00,Sunday
7,24.386666666666663
19,31.27351705481773
2,1, 7, 1, 0, 5,14.00,15.00,Sunday
7,24.4
19,31.270715926571743
2,1, 7, 1, 0, 5,15.00,16.00,Sunday
7,24.413333333333334
19,31.267991187242426
2,1, 7, 1, 0, 5,16.00,17.00,Sunday
7,24.426666666666666
19,31.265333763807142
2,1, 7, 1, 0, 5,17.00,18.00,Sunday
7,24.439999999999998
19,31.26273564154373
2,1, 7, 1, 0, 5,18.00,19.00,Sunday
7,24.453333333333333
19,31.260189740694695
2,1, 7, 1, 0, 5,19.00,20.00,Sunday
7,24.46666666666667
19,31.25768980751936
2,1, 7, 1, 0, 5,20.00,21.00,Sunday
7,24.48
19,31.25523031801264
2,1, 7, 1, 0, 5,21.00,22.00,Sunday
7,24.493333333333332
19,31.25280639278353
2,1, 7, 1, 0, 5,22.00,23.00,Sunday
7,24.506666666666668
19,31.250413721805227
2,1, 7, 1, 0, 5,23.00,24.00,Sunday
7,24.52
19,31.24804849791424
2,1, 7, 1, 0, 5,24.00,25.00,Sunday
7,24.53333333333333
19,31.245707358059942
2,1, 7, 1, 0, 5,25.00,26.00,Sunday
7,24.546666666666667
19,31.243387331414077
2,1, 7, 1, 0, 5,26.00,27.00,Sunday
7,24.560000000000002
19,31.241085793544972
2,1, 7, 1, 0, 5,27.00,28.00,Sunday
7,24.57333333333333
19,31.238800425950174
2,1, 7, 1, 0, 5,28.00,29.00,Sunday
7,24.586666666666666
19,31.2365291803214
2,1, 7, 1, 0, 5,29.00,30.00,Sunday
7,24.6
19,31.23427024698936
2,1, 7, 1, 0, 5,30.00,31.00,Sunday
7,24.613333333333333
19,31.232022027058854
2,1, 7, 1, 0, 5,31.00,32.00,Sunday
7,24.626666666666665
19,31.22978310780202
2,1, 7, 1, 0, 5,32.00,33.00,Sunday
7,24.64
19,31.22755224092907
2,1, 7, 1, 0, 5,33.00,34.00,Sunday
7,24.653333333333332
19,31.22532832339922
2,1, 7, 1, 0, 5,34.00,35.00,Sunday
7,24.666666666666664
19,31.223110380474303
2,1, 7, 1, 0, 5,35.00,36.00,Sunday
7,24.68
19,31.220925364840564
2,1, 7, 1, 0, 5,36.00,37.00,Sunday
7,24.693333333333335
19,31.21880189504607
2,1, 7, 1, 0, 5,37.00,38.00,Sunday
7,24.706666666666663
19,31.216751261010433
2,1, 7, 1, 0, 5,38.00,39.00,Sunday
7,24.72
19,31.21477118870889
2,1, 7, 1, 0, 5,39.00,40.00,Sunday
7,24.733333333333334
19,31.212853977058064
2,1, 7, 1, 0, 5,40.00,41.00,Sunday
7,24.746666666666666
19,31.210991412500487
2,1, 7, 1, 0, 5,41.00,42.00,Sunday
7,24.76
19,31.209176404039702
2,1, 7, 1, 0, 5,42.00,43.00,Sunday
7,24.773333333333333
19,31.207403055620933
2,1, 7, 1, 0, 5,43.00,44.00,Sunday
7,24.786666666666665
19,31.205666356652195
2,1, 7, 1, 0, 5,44.00,45.00,Sunday
7,24.8
19,31.203961931677387
2,1, 7, 1, 0, 5,45.00,46.00,Sunday
7,24.813333333333333
19,31.202285906051088
2,1, 7, 1, 0, 5,46.00,47.00,Sunday
7,24.826666666666664
19,31.200634838361374
2,1, 7, 1, 0, 5,47.00,48.00,Sunday
7,24.84
19,31.199005676430446
2,1, 7, 1, 0, 5,48.00,49.00,Sunday
7,24.853333333333335
19,31.19739571836399
2,1, 7, 1, 0, 5,49.00,50.00,Sunday
7,24.866666666666667
19,31.19580257486572
2,1, 7, 1, 0, 5,50.00,51.00,Sunday
7,24.88
19,31.194224133752392
2,1, 7, 1, 0, 5,51.00,52.00,Sunday
7,24.893333333333334
19,31.19265852777567
2,1, 7, 1, 0, 5,52.00,53.00,Sunday
7,24.906666666666666
19,31.19110410605637
2,1, 7, 1, 0, 5,53.00,54.00,Sunday
7,24.919999999999998
19,31.18955940890137
2,1, 7, 1, 0, 5,54.00,55.00,Sunday
7,24.93333333333333
19,31.188023145605552
2,1, 7, 1, 0, 5,55.00,56.00,Sunday
7,24.946666666666665
19,31.186494174853127
2,1, 7, 1, 0, 5,56.00,57.00,Sunday
7,24.96
19,31.1849714873954
2,1, 7, 1, 0, 5,57.00,58.00,Sunday
7,24.973333333333333
19,31.183454190735066
2,1, 7, 1, 0, 5,58.00,59.00,Sunday
7,24.986666666666668
19,31.181941495585708
2,1, 7, 1, 0, 5,59.00,60.00,Sunday
7,25.0
19,31.180432703901474
2,1, 7, 1, 0, 5, 0.00,60.00,Sunday
8,25.58240175380565
9,25.60480643630189
10,25.620928873877006
11,25.598419212547633
12,39.73374065589117
13,23.740908550161876
14,23.72421299697378
15,25.418043920788723
16,25.435813782643127
17,25.453527066025888
18,25.435194226171134
2,1, 7, 1, 0, 6, 0.00, 1.00,Sunday
7,25.01833333333333
19,31.17891938497863
2,1, 7, 1, 0, 6, 1.00, 2.00,Sunday
7,25.03666666666667
19,31.177393923533835
2,1, 7, 1, 0, 6, 2.00, 3.00,Sunday
7,25.055
19,31.175855140530768
2,1, 7, 1, 0, 6, 3.00, 4.00,Sunday
7,25.07333333333333
19,31.174306456290324
2,1, 7, 1, 0, 6, 4.00, 5.00,Sunday
7,25.091666666666665
19,31.1727528815107
2,1, 7, 1, 0, 6, 5.00, 6.00,Sunday
7,25.11
19,31.171199300347475
2,1, 7, 1, 0, 6, 6.00, 7.00,Sunday
7,25.128333333333334
19,31.169649942061042
2,1, 7, 1, 0, 6, 7.00, 8.00,Sunday
7,25.14666666666667
19,31.168108394784753
2,1, 7, 1, 0, 6, 8.00, 9.00,Sunday
7,25.165
19,31.166577741754352
2,1, 7, 1, 0, 6, 9.00,10.00,Sunday
7,25.183333333333337
19,31.165060669950357
2,1, 7, 1, 0, 6,10.00,11.00,Sunday
7,25.201666666666668
19,31.16355953508056
2,1, 7, 1, 0, 6,11.00,12.00,Sunday
7,25.22
19,31.162076401706685
2,1, 7, 1, 0, 6,12.00,13.00,Sunday
7,25.238333333333333
19,31.160613073893213
2,1, 7, 1, 0, 6,13.00,14.00,Sunday
7,25.256666666666664
19,31.159171122771646
2,1, 7, 1, 0, 6,14.00,15.00,Sunday
7,25.275
19,31.157751912287207
2,1, 7, 1, 0, 6,15.00,16.00,Sunday
7,25.293333333333337
19,31.15635662284444
2,1, 7, 1, 0, 6,16.00,17.00,Sunday
7,25.311666666666667
19,31.154986272568124
2,1, 7, 1, 0, 6,17.00,18.00,Sunday
7,25.33
19,31.153641736192615
2,1, 7, 1, 0, 6,18.00,19.00,Sunday
7,25.348333333333333
19,31.15232376177646
2,1, 7, 1, 0, 6,19.00,20.00,Sunday
7,25.366666666666667
19,31.151032985487888
2,1, 7, 1, 0, 6,20.00,21.00,Sunday
7,25.384999999999998
19,31.14976994469163
2,1, 7, 1, 0, 6,21.00,22.00,Sunday
7,25.403333333333332
19,31.148535089536022
2,1, 7, 1, 0, 6,22.00,23.00,Sunday
7,25.421666666666667
19,31.147328793211912
2,1, 7, 1, 0, 6,23.00,24.00,Sunday
7,25.44
19,31.14615136103404
2,1, 7, 1, 0, 6,24.00,25.00,Sunday
7,25.458333333333336
19,31.145003038478258
2,1, 7, 1, 0, 6,25.00,26.00,Sunday
7,25.476666666666667
19,31.14388401829338
2,1, 7, 1, 0, 6,26.00,27.00,Sunday
7,25.495000000000005
19,31.142794446793225
2,1, 7, 1, 0, 6,27.00,28.00,Sunday
7,25.513333333333335
19,31.14173442942271
2,1, 7, 1, 0, 6,28.00,29.00,Sunday
7,25.531666666666666
19,31.140704035681043
2,1, 7, 1, 0, 6,29.00,30.00,Sunday
7,25.55
19,31.13970330347584
2,1, 7, 1, 0, 6,30.00,31.00,Sunday
7,25.568333333333335
19,31.138732242972882
2,1, 7, 1, 0, 6,31.00,32.00,Sunday
7,25.586666666666666
19,31.137790840000008
2,1, 7, 1, 0, 6,32.00,33.00,Sunday
7,25.605
19,31.13687905905574
2,1, 7, 1, 0, 6,33.00,34.00,Sunday
7,25.623333333333335
19,31.13599684596798
2,1, 7, 1, 0, 6,34.00,35.00,Sunday
7,25.641666666666666
19,31.135144130242914
2,1, 7, 1, 0, 6,35.00,36.00,Sunday
7,25.66
19,31.13432082713926
2,1, 7, 1, 0, 6,36.00,37.00,Sunday
7,25.678333333333335
19,31.1335268394993
2,1, 7, 1, 0, 6,37.00,38.00,Sunday
7,25.69666666666667
19,31.132762059364588
2,1, 7, 1, 0, 6,38.00,39.00,Sunday
7,25.715
19,31.132026369400077
2,1, 7, 1, 0, 6,39.00,40.00,Sunday
7,25.733333333333334
19,31.131319644148267
2,1, 7, 1, 0, 6,40.00,41.00,Sunday
7,25.751666666666665
19,31.130641751132586
2,1, 7, 1, 0, 6,41.00,42.00,Sunday
7,25.77
19,31.129992551825993
2,1, 7, 1, 0, 6,42.00,43.00,Sunday
7,25.788333333333334
19,31.129371902499326
2,1, 7, 1, 0, 6,43.00,44.00,Sunday
7,25.80666666666667
19,31.12877965496115
2,1, 7, 1, 0, 6,44.00,45.00,Sunday
7,25.825000000000003
19,31.128215657199416
2,1, 7, 1, 0, 6,45.00,46.00,Sunday
7,25.843333333333334
19,31.127679753933023
2,1, 7, 1, 0, 6,46.00,47.00,Sunday
7,25.861666666666668
19,31.12717178707881
2,1, 7, 1, 0, 6,47.00,48.00,Sunday
7,25.880000000000003
19,31.12669159613695
2,1, 7, 1, 0, 6,48.00,49.00,Sunday
7,25.898333333333333
19,31.126239018494374
2,1, 7, 1, 0, 6,49.00,50.00,Sunday
7,25.91666666666667
19,31.125813889643855
2,1, 7, 1, 0, 6,50.00,51.00,Sunday
7,25.935000000000002
19,31.12541616536805
2,1, 7, 1, 0, 6,51.00,52.00,Sunday
7,25.953333333333333
19,31.12504563584444
2,1, 7, 1, 0, 6,52.00,53.00,Sunday
7,25.971666666666668
19,31.12470205016219
2,1, 7, 1, 0, 6,53.00,54.00,Sunday
7,25.990000000000002
19,31.1243852043782
2,1, 7, 1, 0, 6,54.00,55.00,Sunday
7,26.008333333333336
19,31.124094925757163
2,1, 7, 1, 0, 6,55.00,56.00,Sunday
7,26.02666666666667
19,31.1238310819027
2,1, 7, 1, 0, 6,56.00,57.00,Sunday
7,26.045
19,31.123593568868195
2,1, 7, 1, 0, 6,57.00,58.00,Sunday
7,26.063333333333333
19,31.123420381904328
2,1, 7, 1, 0, 6,58.00,59.00,Sunday
7,26.081666666666667
19,31.135325870423042
2,1, 7, 1, 0, 6,59.00,60.00,Sunday
7,26.1
19,31.178898496390094
2,1, 7, 1, 0, 6, 0.00,60.00,Sunday
8,25.98327237634394
9,25.991661371544414
10,26.01334807146337
11,25.992963955861022
12,39.22585655968001
13,24.03621668109063
14,23.995811473840888
15,25.838817181672972
16,25.84318519229814
17,25.864561327048104
18,25.850564946813687
2,1, 7, 1, 0, 7, 0.00, 1.00,Sunday
7,26.08
19,31.248407207581444
2,1, 7, 1, 0, 7, 1.00, 2.00,Sunday
7,26.06
19,31.32489811230497
2,1, 7, 1, 0, 7, 2.00, 3.00,Sunday
7,26.040000000000003
19,31.39742371753463
2,1, 7, 1, 0, 7, 3.00, 4.00,Sunday
7,26.020000000000003
19,31.46287905192002
2,1, 7, 1, 0, 7, 4.00, 5.00,Sunday
7,26.0
19,31.521727348419482
2,1, 7, 1, 0, 7, 5.00, 6.00,Sunday
7,25.980000000000004
19,31.575191666439128
2,1, 7, 1, 0, 7, 6.00, 7.00,Sunday
7,25.96
19,31.624299094990064
2,1, 7, 1, 0, 7, 7.00, 8.00,Sunday
7,25.94
19,31.669726063788772
2,1, 7, 1, 0, 7, 8.00, 9.00,Sunday
7,25.92
19,31.711977312157156
2,1, 7, 1, 0, 7, 9.00,10.00,Sunday
7,25.900000000000002
19,31.751445581254963
2,1, 7, 1, 0, 7,10.00,11.00,Sunday
7,25.880000000000003
19,31.788487451065127
2,1, 7, 1, 0, 7,11.00,12.00,Sunday
7,25.860000000000003
19,31.82342345057713
2,1, 7, 1, 0, 7,12.00,13.00,Sunday
7,25.84
19,31.85656179765215
2,1, 7, 1, 0, 7,13.00,14.00,Sunday
7,25.819999999999997
19,31.888182717790453
2,1, 7, 1, 0, 7,14.00,15.00,Sunday
7,25.800000000000004