Program Version,EnergyPlus, Version 25.1.0-1c11a3d85f, YMD=2026.04.10 11:42
1,5,Environment Title[],Latitude[deg],Longitude[deg],Time Zone[],Elevation[m]
2,8,Day of Simulation[],Month[],Day of Month[],DST Indicator[1=yes 0=no],Hour[],StartMinute[],EndMinute[],DayType
3,5,Cumulative Day of Simulation[],Month[],Day of Month[],DST Indicator[1=yes 0=no],DayType  ! When Daily Report Variables Requested
4,2,Cumulative Days of Simulation[],Month[]  ! When Monthly Report Variables Requested
5,1,Cumulative Days of Simulation[] ! When Run Period Report Variables Requested
6,1,Calendar Year of Simulation[] ! When Annual Report Variables Requested
7,1,Environment,Site Outdoor Air Drybulb Temperature [C] !TimeStep
8,1,PI_HEATER,Other Equipment Convective Heating Rate [W] !TimeStep
9,1,EMS,EMS Heating Power [W] !TimeStep
10,1,EMS,EMS Integral Error [] !TimeStep
11,1,WALL_N,Surface Inside Face Temperature [C] !TimeStep
12,1,WALL_N,Surface Outside Face Temperature [C] !TimeStep
13,1,WALL_S,Surface Inside Face Temperature [C] !TimeStep
14,1,WALL_S,Surface Outside Face Temperature [C] !TimeStep
15,1,WALL_E,Surface Inside Face Temperature [C] !TimeStep
16,1,WALL_E,Surface Outside Face Temperature [C] !TimeStep
17,1,WALL_W,Surface Inside Face Temperature [C] !TimeStep
18,1,WALL_W,Surface Outside Face Temperature [C] !TimeStep
19,1,FLOOR,Surface Inside Face Temperature [C] !TimeStep
20,1,FLOOR,Surface Outside Face Temperature [C] !TimeStep
21,1,ROOF,Surface Inside Face Temperature [C] !TimeStep
22,1,ROOF,Surface Outside Face Temperature [C] !TimeStep
23,1,GREENHOUSE,Zone Mean Air Temperature [C] !TimeStep
End of Data Dictionary
1,RUN PERIOD 1,  50.90,   4.53,   1.00,  58.00
2,1,12,10, 0, 1, 0.00, 1.00,Sunday
7,7.456666666666667
8,0.0
9,0.0
10,0.0
11,8.372555776752524
12,8.347968231387144
13,8.347072472783168
14,8.322241633893428
15,8.339671052663311
16,8.314777089151969
17,8.339671052663311
18,8.314777089151969
19,9.858506740800092
20,10.7
21,7.340474933922608
22,7.298455133465243
23,16.56671070408437
2,1,12,10, 0, 1, 1.00, 2.00,Sunday
7,7.413333333333333
8,0.0
9,0.0
10,0.0
11,8.328405441752757
12,8.304844943743658
13,8.301805265188637
14,8.278009900449682
15,8.294388605970825
16,8.27053033471144
17,8.294388605970825
18,8.27053033471144
19,9.812916902142089
20,10.7
21,7.28170564006122
22,7.2408913781713755
23,15.990598179969323
2,1,12,10, 0, 1, 2.00, 3.00,Sunday
7,7.37
8,0.0
9,15795.057651536838
10,0.5641092018406013
11,8.24661077626707
12,8.224076941047288
13,8.219875685683235
14,8.19712502306192
15,8.212435315819603
16,8.189621879767316
17,8.212435315819604
18,8.189621879767317
19,9.765899883524165
20,10.7
21,7.185571933900446
22,7.145954669544746
23,15.481060294318452
2,1,12,10, 0, 1, 3.00, 4.00,Sunday
7,7.326666666666666
8,15795.057651536838
9,874451.2151535907
10,31.700491542733502
11,8.144821893711791
12,8.123232555309647
13,8.118780647589436
14,8.096996206133765
15,8.111315518793175
16,8.089468372065452
17,8.111315518793152
18,8.08946837206543
19,9.721476968790036
20,10.7
21,7.072545640548655
22,7.034021532971048
23,15.031689278684384
2,1,12,10, 0, 1, 4.00, 5.00,Sunday
7,7.283333333333333
8,874451.2151535907
9,1774697.6390096578
10,89.79913482167046
11,8.034401593918568
12,8.01366342295946
13,8.009652920556737
14,7.988741796144878
15,8.002165625551964
16,7.981191817034996
17,8.002165625551948
18,7.98119181703498
19,9.680565977699482
20,10.7
21,6.954567266874357
22,6.917019677420069
23,15.037740485844735
2,1,12,10, 0, 1, 5.00, 6.00,Sunday
7,7.24
8,1774697.6390096578
9,2035658.6129486412
10,147.5347056709864
11,7.949942081350399
12,7.929178084876734
13,7.926584114767351
14,7.905659526706469
15,7.919088715233682
16,7.898101187680363
17,7.919088715233677
18,7.898101187680358
19,9.670890902502565
20,10.7
21,6.870633452165974
22,6.833014855725083
23,15.745455273407572
2,1,12,10, 0, 1, 6.00, 7.00,Sunday
7,7.196666666666667
8,2035658.6129486412
9,1116130.433806549
10,162.80738926653208
11,7.93380123188425
12,7.911587988395883
13,7.911174738591872
14,7.888792554239563
15,7.903697864814458
16,7.881252175328773
17,7.903697864814451
18,7.8812521753287665
19,9.713110083070013
20,10.7
21,6.867284478600266
22,6.827922703486814
23,16.900837939536935
2,1,12,10, 0, 1, 7.00, 8.00,Sunday
7,7.153333333333333
8,1116130.433806549
9,0.0
10,108.75711289431601
11,8.000611362713883
12,7.975880135207775
13,7.977436390127768
14,7.952505796998995
15,7.970003068563446
16,7.945008367056542
17,7.970003068563441
18,7.945008367056537
19,9.796695343622805
20,10.7
21,6.956592670475026
22,6.914265240961062
23,17.7140968111234
2,1,12,10, 0, 1, 8.00, 9.00,Sunday
7,7.11
8,0.0
9,0.0
10,5.911304226911952
11,8.101956531225364
12,8.075242549105957
13,8.077088202579958
14,8.050138702453797
15,8.069702665820698
16,8.042688832253093
17,8.0697026658207
18,8.042688832253095
19,9.864789035642042
20,10.7
21,7.07814112880722
22,7.033521013935501
23,17.663094777158356
2,1,12,10, 0, 1, 9.00,10.00,Sunday
7,7.066666666666666
8,0.0
9,0.0
10,0.0
11,8.16062223632387
12,8.133695820069667
13,8.13379994537745
14,8.106617764964753
15,8.126442423254703
16,8.099196106507321
17,8.1264424232547
18,8.099196106507318
19,9.869682201312617
20,10.7
21,7.142939133632672
22,7.0981087088925205
23,17.146908412334565
2,1,12,10, 0, 1,10.00,11.00,Sunday
7,7.023333333333333
8,0.0
9,0.0
10,0.0
11,8.153018383385401
12,8.126893248321029
13,8.124764615121919
14,8.098382983437231
15,8.117409987251559
16,8.090964469111718
17,8.11740998725156
18,8.09096446911172
19,9.834993549801565
20,10.7
21,7.128763874586059
22,7.084882556213167
23,16.520790105598383
2,1,12,10, 0, 1,11.00,12.00,Sunday
7,6.98
8,0.0
9,0.0
10,0.0
11,8.091700347687393
12,8.066675107502784
13,8.062878814593068
14,8.037609813088059
15,8.055509774139905
16,8.030177064477533
17,8.055509774139907
18,8.030177064477535
19,9.786791862250142
20,10.7
21,7.055124710670695
22,7.0125222438159716
23,15.935062304373785
2,1,12,10, 0, 1,12.00,13.00,Sunday
7,6.9366666666666665
8,0.0
9,109095.32865204099
10,3.8962617375728925
11,7.9973407487385355
12,7.973397517943587
13,7.9688076354246515
14,7.94464002747019
15,7.96141670693469
16,7.937185488152153
17,7.961416706934691
18,7.937185488152154
19,9.737849201813459
20,10.7
21,6.948392816708546
22,6.907038153982825
23,15.416068802368372
2,1,12,10, 0, 1,13.00,14.00,Sunday
7,6.8933333333333335
8,109095.32865204099
9,999186.9667964753
10,38.93213359547058
11,7.886075486676079
12,7.863121606959096
13,7.858515418053495
14,7.835358716317986
15,7.851101770979274
16,7.827881496468073
17,7.851101770979274
18,7.827881496468073
19,9.691886612206002
20,10.7
21,6.8273876375380045
22,6.787165647235743
23,15.002446881573809
2,1,12,10, 0, 1,14.00,15.00,Sunday
7,6.85
8,999186.9667964753
9,1857572.5290681974
10,98.78532070104207
11,7.77140629908236
12,7.74925256269299
13,7.745266598952045
14,7.722930485400716
15,7.7378337774589685
16,7.715434061333837
17,7.7378337774589685
18,7.715434061333837
19,9.65279718965658
20,10.7
21,6.706794691804463
22,6.6674777453777425
23,15.086001032595012
2,1,12,10, 0, 1,15.00,16.00,Sunday
7,6.806666666666667
8,1857572.5290681974
9,1996516.4285119083
10,153.6252587453413
11,7.689657485197097
12,7.6673311915787155
13,7.664924909271878
14,7.642426523186613
15,7.6574882362092165
16,7.6349259418067295
17,7.6574882362092165
18,7.6349259418067295
19,9.648265392689963
20,10.7
21,6.627630838678333
22,6.5880651220379285
23,15.865883750627805
2,1,12,10, 0, 1,16.00,17.00,Sunday
7,6.763333333333334
8,1996516.4285119083
9,942233.1730902131
10,161.672233707673
11,7.681695395226752
12,7.657758933310724
13,7.65771025843094
14,7.633593204672717
15,7.650296262018436
16,7.626114731416406
17,7.650296262018436
18,7.626114731416406
19,9.696291503587245
20,10.7
21,6.634615881760821
22,6.5931283089977795
23,17.02060145735221
2,1,12,10, 0, 1,17.00,18.00,Sunday
7,6.72
8,942233.1730902131
9,0.0
10,100.43614626654038
11,7.75582228585886
12,7.72933174304193
13,7.7314540898218445
14,7.704756404940353
15,7.724085554802476
16,7.6973228334709525
17,7.724085554802476
18,7.6973228334709525
19,9.781367426971078
20,10.7
21,6.732558426164287
22,6.688081294778389
23,17.723083375235724
2,1,12,10, 0, 1,18.00,19.00,Sunday
7,6.676666666666667
8,0.0
9,0.0
10,0.0
11,7.85480359316041
12,7.826549570331376
13,7.829139619103618
14,7.8006498907253174
15,7.821817187765853
16,7.793262280924817
17,7.821817187765853
18,7.793262280924817
19,9.842017596792079
20,10.7
21,6.851291314226115
22,6.804796911378828
23,17.595401968993354
2,1,12,10, 0, 1,19.00,20.00,Sunday
7,6.633333333333335
8,0.0
9,0.0
10,0.0
11,7.905987976576056
12,7.877693239316585
13,7.878880073331534
14,7.8503357642480625
15,7.871582687385024
16,7.8429734177876576
17,7.871582687385024
18,7.8429734177876576
19,9.840875575041517
20,10.7
21,6.9077372502575765
22,6.8612380917983256
23,17.046261461282022
2,1,12,10, 0, 1,20.00,21.00,Sunday
7,6.59
8,0.0
9,0.0
10,0.0
11,7.890517697932058
12,7.863112041113652
13,7.8624459354542315
14,7.834793145902403
15,7.8551490790661465
16,7.827431570634525
17,7.8551490790661465
18,7.827431570634525
19,9.803112418384863
20,10.7
21,6.88514671416565
22,6.83969473489113
23,16.409386389488624
2,1,12,10, 0, 1,21.00,22.00,Sunday
7,6.546666666666667
8,0.0
9,0.0
10,0.0
11,7.822713024575948
12,7.796448961139101
13,7.79441136632144
14,7.767913368600758
15,7.787098822610541
16,7.760536269534469
17,7.787098822610541
18,7.760536269534469
19,9.753099691471819
20,10.7
21,6.804889062838038
22,6.760758418330794
23,15.819190546211038
2,1,12,10, 0, 1,22.00,23.00,Sunday
7,6.503333333333334
8,0.0
9,303759.8823654561
10,10.848567227337718
11,7.723248108626766
12,7.698090505700456
13,7.695425022441462
14,7.670051773136934
15,7.688090109701058
16,7.662652386060532
17,7.688090109701057
18,7.662652386060531
19,9.702956522934608
20,10.7
21,6.693106164977533
22,6.650244307409825
23,15.295775257504877
2,1,12,10, 0, 1,23.00,24.00,Sunday
7,6.46
8,303759.8823654561
9,1233724.214452716
10,53.102051777045105
11,7.6078191518093945
12,7.583671394414435
13,7.581031480806278
14,7.556687854954876
15,7.5736737954909845
16,7.549265718882475
17,7.5736737954909845
18,7.549265718882475
19,9.655919802506409
20,10.7
21,6.567987955681711
22,6.526274662683345
23,14.971043351004983
2,1,12,10, 0, 1,24.00,25.00,Sunday
7,6.416666666666666
8,1233724.214452716
9,1976456.7452711724
10,114.83945071674611
11,7.496248242193005
12,7.472733536486671
13,7.470807828538529
14,7.447114366365608
15,7.46343332230222
16,7.439675316245626
17,7.46343332230222
18,7.439675316245626
19,9.622255536677017
20,10.7
21,6.451599424079336
22,6.410585725882312
23,15.216842636609138
2,1,12,10, 0, 1,25.00,26.00,Sunday
7,6.373333333333333
8,1976456.7452711724
9,1851621.8071747958
10,161.8288925201978
11,7.42848999275608
12,7.4044737320798335
13,7.404274514533302
14,7.380085932266366
15,7.396901560135016
16,7.372648058902141
17,7.396901560135015
18,7.37264805890214
19,9.628936292565637
20,10.7
21,6.388965497929362
22,6.347319077410097
23,16.12560459271632
2,1,12,10, 0, 1,26.00,27.00,Sunday
7,6.33
8,1851621.8071747958
9,544185.7826641697
10,154.2926169572185
11,7.441145340682515
12,7.4152104112471795
13,7.417500644141875
14,7.39138338841534
15,7.410155958638153
16,7.383973205089071
17,7.410155958638153
18,7.383973205089071
19,9.68782438780469
20,10.7
21,6.419321822310927
22,6.375408966144873
23,17.24241614027594
2,1,12,10, 0, 1,27.00,28.00,Sunday
7,6.286666666666667
8,544185.7826641697
9,0.0
10,79.74764854066218
11,7.528664941349636
12,7.500203127462735
13,7.504652998421616
14,7.475986132812167
15,7.497355139500783
16,7.468622324729083
17,7.497355139500783
18,7.468622324729083
19,9.77250255243369
20,10.7
21,6.531381086731136
22,6.484542567895964
23,17.687915569874402
2,1,12,10, 0, 1,28.00,29.00,Sunday
7,6.243333333333333
8,0.0
9,0.0
10,0.0
11,7.617768284509162
12,7.588072416647189
13,7.5927987312268765
14,7.562878497615797
15,7.585541434788172
16,7.55555526067222
17,7.585541434788171
18,7.555555260672219
19,9.814423697255666
20,10.7
21,6.6371775261706825
22,6.588957962777261
23,17.402987872292364
2,1,12,10, 0, 1,29.00,30.00,Sunday
7,6.2
8,0.0
9,0.0
10,0.0
11,7.64961471073631
12,7.6202287048568484
13,7.62372658615161
14,7.594110371292161
15,7.6164867590434975
16,7.58680484802713
17,7.616486759043497
18,7.586804848027129
19,9.799866592104229
20,10.7
21,6.670860924518887
22,6.623039120922756
23,16.80294271914535
2,1,12,10, 0, 1,30.00,31.00,Sunday
7,6.156666666666666
8,0.0
9,0.0
10,0.0
11,7.616685879378068
12,7.588324886388695
13,7.5903500174989755
14,7.561765354981141
15,7.583105126890435
16,7.5544549873407885
17,7.583105126890433
18,7.554454987340787
19,9.756313772148898
20,10.7
21,6.629003389950482
22,6.582377903823394
23,16.164547100474945
2,1,12,10, 0, 1,31.00,32.00,Sunday
7,6.113333333333333
8,0.0
9,0.0
10,0.0
11,7.53662312204712
12,7.509433415887435
13,7.510444848267119
14,7.483045402916338
15,7.503181510979181
16,7.475716719175986
17,7.503181510979178
18,7.475716719175983
19,9.705000959505774
20,10.7
21,6.536179365401098
22,6.49090019134165
23,15.584038666484819
2,1,12,10, 0, 1,32.00,33.00,Sunday
7,6.07
8,0.0
9,698815.0403055042
10,24.957680010910863
11,7.429326522695516
12,7.403243218723521
13,7.403851893015903
14,7.37757589878734
15,7.396565503585827
16,7.370224216490245
17,7.396565503585825
18,7.370224216490243
19,9.654850894643209
20,10.7
21,6.417009876409954
22,6.3729904571023095
23,15.06777470348486
2,1,12,10, 0, 1,33.00,34.00,Sunday
7,6.026666666666667
8,698815.0403055042
9,1682607.6715296863
10,80.89119780181929
11,7.308868273614171
12,7.283792664407043
13,7.284507798340819
14,7.259257155368919
15,7.277199004415338
16,7.251883070534038
17,7.277199004415338
18,7.251883070534038
19,9.607986392689737
20,10.7
21,6.287467020690397
22,6.244585110542553
23,14.937581172215037
2,1,12,10, 0, 1,34.00,35.00,Sunday
7,5.983333333333333
8,1682607.6715296863
9,2162355.8870872287
10,144.6363274689171
11,7.20759461856257
12,7.182772157176595
13,7.184490956481853
14,7.159506133152618
15,7.177170552733814
16,7.152120229153352
17,7.177170552733814
18,7.152120229153352
19,9.58753362803502
20,10.7
21,6.1842811710287275
22,6.141646388179461
23,15.51207263063939
2,1,12,10, 0, 1,35.00,36.00,Sunday
7,5.9399999999999995
8,2162355.8870872287
9,1494687.5087141052
10,173.91196963055373
11,7.171646784578595
12,7.145640436446526
13,7.149518988736839
14,7.1233511213334975
15,7.142211124864439
16,7.115977259666963
17,7.142211124864439
18,7.115977259666963
19,9.618538233968975
20,10.7
21,6.159042055436843
22,6.114986515607535
23,16.65888849671646
2,1,12,10, 0, 1,36.00,37.00,Sunday
7,5.8966666666666665
8,1494687.5087141052
9,0.0
10,134.37865982756608
11,7.226731572671536
12,7.198232797259727
13,7.204894565885253
14,7.176221294352296
15,7.197625917390504
16,7.1688860745561
17,7.197625917390503
18,7.168886074556098
19,9.699231848485322
20,10.7
21,6.237236750321359
22,6.190279286422832
23,17.660482772490948
2,1,12,10, 0, 1,37.00,38.00,Sunday
7,5.8533333333333335
8,0.0
9,0.0
10,34.74969347810922
11,7.337299524106812
12,7.306426311851782
13,7.315027255336163
14,7.283960731141328
15,7.307807893836178
16,7.276674528742521
17,7.307807893836175
18,7.276674528742518
19,9.780663997710299
20,10.7
21,6.372731122408429
22,6.3230659481271605
23,17.70244134949024
2,1,12,10, 0, 1,38.00,39.00,Sunday
7,5.8100000000000005
8,0.0
9,0.0
10,0.0
11,7.4109197886015075
12,7.3796529920472995
13,7.387967762659082
14,7.356497863220289
15,7.380780384631647
16,7.349243858570181
17,7.380780384631645
18,7.349243858570179
19,9.793516274621842
20,10.7
21,6.457177532882341
22,6.407122505141225
23,17.18284355047368
2,1,12,10, 0, 1,39.00,40.00,Sunday
7,5.7666666666666675
8,0.0
9,0.0
10,0.0
11,7.412961578703443
12,7.38252004185158
13,7.389570410233104
14,7.358927912143992
15,7.382388795158799
16,7.351679934991492
17,7.382388795158798
18,7.351679934991491
19,9.759503049770672
20,10.7
21,6.4549654475906655
22,6.405890909594917
23,16.512199081109298
2,1,12,10, 0, 1,40.00,41.00,Sunday
7,5.723333333333334
8,0.0
9,0.0
10,0.0
11,7.353661753310611
12,7.324433728406452
13,7.330303300661943
14,7.300884760263396
15,7.323108060544521
16,7.293623343406679
17,7.323108060544521
18,7.293623343406679
19,9.708167971090452
20,10.7
21,6.383467237160468
22,6.335793572609655
23,15.876365488732496
2,1,12,10, 0, 1,41.00,42.00,Sunday
7,5.680000000000001
8,0.0
9,207705.97892940656
10,7.418070676050235
11,7.255505451946394
12,7.2274803164860595
13,7.232665023671315
14,7.204463840184788
15,7.225447187039675
16,7.197179910980919
17,7.225447187039675
18,7.197179910980919
19,9.655102343468863
20,10.7
21,6.271831600988209
22,6.225528403262032
23,15.313624104772842
2,1,12,10, 0, 1,42.00,43.00,Sunday
7,5.636666666666667
8,207705.97892940656
9,1187729.1671365267
10,48.60062438967972
11,7.136998865205718
12,7.1100708566508155
13,7.115067094223966
14,7.087978696013165
15,7.10782520734857
16,7.080670732708854
17,7.10782520734857
18,7.080670732708854
19,9.605068562636161
20,10.7
21,6.1420402127026685
22,6.096975217112845
23,14.911094933477875
2,1,12,10, 0, 1,43.00,44.00,Sunday
7,5.593333333333334
8,1187729.1671365267
9,2056163.4255756754
10,113.93492838100724
11,7.016939546712256
12,6.990807965272117
13,6.996157050924322
14,6.969879458824654
15,6.988895671578066
16,6.9625519259301765
17,6.988895671578066
18,6.9625519259301765
19,9.565526843278066
20,10.7
21,6.015103677389958
22,5.970919595765926
23,15.082460539866174
2,1,12,10, 0, 1,44.00,45.00,Sunday
7,5.550000000000001
8,2056163.4255756754
9,2073162.6254695274
10,168.9872959890368
11,6.938067228474051
12,6.911591453584656
13,6.9184066212538955
14,6.891792603321102
15,6.911143053123429
16,6.884462545033845
17,6.911143053123429
18,6.884462545033845
19,9.563355012723722
20,10.7
21,5.939488267763339
22,5.8948575739980615
23,15.98956121433268
2,1,12,10, 0, 1,45.00,46.00,Sunday
7,5.506666666666667
8,2073162.6254695274
9,806144.5412032697
10,169.61362312907602
11,6.94403640065767
12,6.915648698809923
13,6.9251273884165965
14,6.896598544868955
15,6.917889071195556
16,6.889293174686672
17,6.917889071195556
18,6.889293174686672
19,9.61824900452734
20,10.7
21,5.962798208901688
22,5.915923873319936
23,17.21703758993336
2,1,12,10, 0, 1,46.00,47.00,Sunday
7,5.463333333333333
8,806144.5412032697
9,0.0
10,96.5913677330745
11,7.037420924187871
12,7.00627165250759
13,7.01868104966665
14,6.987379007833229
15,7.011489586887138
16,6.980120032806495
17,7.011489586887138
18,6.980120032806495
19,9.708060453515658
20,10.7
21,6.082947612127991
22,6.032903277917332
23,17.842794191939237
2,1,12,10, 0, 1,47.00,48.00,Sunday
7,5.42
8,0.0
9,0.0
10,0.0
11,7.14636249845329
12,7.113588849276095
13,7.127379671989388
14,7.094442832192809
15,7.120232385832345
16,7.087228025147247
17,7.120232385832345
18,7.087228025147247
19,9.762083240148701
20,10.7
21,6.21274077806573
22,6.160892310021842
23,17.624939716700073
2,1,12,10, 0, 1,48.00,49.00,Sunday
7,5.376666666666667
8,0.0
9,0.0
10,0.0
11,7.1974604238970885
12,7.164858080798536
13,7.178219116329196
14,7.1454518188130764
15,7.171093003188209
16,7.13825846361409
17,7.171093003188209
18,7.13825846361409
19,9.751609209049667
20,10.7
21,6.268590771226645
22,6.217000778895395
23,17.008471409562997
2,1,12,10, 0, 1,49.00,50.00,Sunday
7,5.333333333333334
8,0.0
9,0.0
10,0.0
11,7.175633752374043
12,7.144100003784637
13,7.156409670106365
14,7.124717406396116
15,7.149279937976951
16,7.117520683940121
17,7.149279937976951
18,7.117520683940121
19,9.70520741448617
20,10.7
21,6.238431634743419
22,6.188092766854168
23,16.324124531775574
2,1,12,10, 0, 1,50.00,51.00,Sunday
7,5.29
8,0.0
9,0.0
10,0.0
11,7.098384315925288
12,7.068129108111214
13,7.079550674696
14,7.049148245565364
15,7.072401665827388
16,7.041932393486083
17,7.072401665827388
18,7.041932393486083
19,9.64803127675815
20,10.7
21,6.147340989037467
22,6.0984665488258285
23,15.696908492337371
2,1,12,10, 0, 1,51.00,52.00,Sunday
7,5.246666666666667
8,0.0
9,509193.73287321604
10,18.185490459757716
11,6.988163600338672
12,6.95912566952492
13,6.97005944659548
14,6.940887524115501
15,6.962885254585716
16,6.9336465455671386
17,6.962885254585716
18,6.9336465455671386
19,9.591341072064123
20,10.7
21,6.023452412344576
22,5.9759559191356555
23,15.141006974410079
2,1,12,10, 0, 1,52.00,53.00,Sunday
7,5.203333333333333
8,509193.73287321604
9,1527973.9051366036
10,69.72507199515299
11,6.861493785727122
12,6.833562145659137
13,6.844370448417269
14,6.8163182701281775
15,6.837171336485145
16,6.8090523683797235
17,6.837171336485145
18,6.8090523683797235
19,9.538079763828904
20,10.7
21,5.885831755075982
22,5.839575668373195
23,14.886051347873337
2,1,12,10, 0, 1,53.00,54.00,Sunday
7,5.16
8,1527973.9051366036
9,2196817.4048835067
10,136.56199112275274
11,6.746258180320535
12,6.718841897211844
13,6.730228313911787
14,6.702702624660761
15,6.723012851555496
16,6.6954202114632295
17,6.723012851555496
18,6.6954202114632295
19,9.505357909750467
20,10.7
21,5.765969605471407
22,5.720260305705794
23,15.304719764837442
2,1,12,10, 0, 1,54.00,55.00,Sunday
7,5.116666666666667
8,2196817.4048835067
9,1805360.086979277
10,178.27880523250624
11,6.689512476644825
12,6.661237732135892
13,6.674478036920355
14,6.646099112119091
15,6.667268014648313
16,6.638821706338365
17,6.667268014648313
18,6.638821706338365
19,9.521270399694012
20,10.7
21,5.716873790770317
22,5.67012488342175
23,16.38921477516798
2,1,12,10, 0, 1,55.00,56.00,Sunday
7,5.073333333333334
8,1805360.086979277
9,178086.93546949164
10,154.92591872242753
11,6.726505375678547
12,6.695892262574864
13,6.712153127660474
14,6.681433783927966
15,6.704976279121067
16,6.674188999223605
17,6.704976279121067
18,6.674188999223605
19,9.59241360391452
20,10.7
21,5.775636680229067
22,5.726177484996144
23,17.527217425251635
2,1,12,10, 0, 1,56.00,57.00,Sunday
7,5.03
8,178086.93546949164
9,0.0
10,63.29287320732942
11,6.836843019076845
12,6.803589690523188
13,6.822799209153774
14,6.7894338022720895
15,6.815670936098084
16,6.782237274915804
17,6.815670936098083
18,6.782237274915803
19,9.679839096109594
20,10.7
21,5.9134232124967125
22,5.860969951722847
23,17.738935139158876
2,1,12,10, 0, 1,57.00,58.00,Sunday
7,4.986666666666667
8,0.0
9,0.0
10,0.0
11,6.924923982194835
12,6.890930357257067
13,6.911028590342934
14,6.876921140215884
15,6.903936095619087
16,6.869760578486563
17,6.903936095619087
18,6.869760578486563
19,9.70334858704085
20,10.7
21,6.016800924971578
22,5.963579497248002
23,17.280304128477464
2,1,12,10, 0, 1,58.00,59.00,Sunday
7,4.943333333333333
8,0.0
9,0.0
10,0.0
11,6.941738890755225
12,6.908460551351197
13,6.928080910835502
14,6.894693114760373
15,6.9209982578179146
16,6.887542690186166
17,6.9209982578179146
18,6.887542690186166
19,9.672368031507895
20,10.7
21,6.032488097510672
22,5.980136083905938
23,16.59629259768798
2,1,12,10, 0, 1,59.00,60.00,Sunday
7,4.9
8,0.0
9,0.0
10,0.0
11,6.890707547842825
12,6.858675605124105
13,6.877503213850282
14,6.8453704604135
15,6.870408877737769
16,6.83820854859068
17,6.870408877737769
18,6.83820854859068
19,9.618233055914478
20,10.7
21,5.97011986556019
22,5.919202835362349
23,15.922033736543591
2,1,12,10, 0, 2, 0.00, 1.00,Sunday
7,4.901666666666666
8,0.0
9,130983.32260676657
10,4.67797580738452
11,6.801717771659007
12,6.771151987011213
13,6.788835929276589
14,6.758170737726825
15,6.781719835907281
16,6.750987221981777
17,6.781719835907281
18,6.750987221981777
19,9.560839416391342
20,10.7
21,5.866881739607012
22,5.817618004634581
23,15.320954224515777
2,1,12,10, 0, 2, 1.00, 2.00,Sunday
7,4.903333333333334
8,130983.32260676657
9,1162627.4565812892
10,45.4207223364379
11,6.69314826234052
12,6.663933313228204
13,6.680565388733833
14,6.651253995243382
15,6.673425023052065
16,6.644046294570266
17,6.673425023052065
18,6.644046294570266
19,9.506630171195663
20,10.7
21,5.745241409329185
22,5.697490045953962
23,14.849700732718087
2,1,12,10, 0, 2, 2.00, 3.00,Sunday
7,4.905
8,1162627.4565812892
9,2144466.1399369896
10,114.43867837335264
11,6.581646055143147
12,6.5535350367624545
13,6.569376403588679
14,6.541172412595956
15,6.562214760531576
16,6.533943453170792
17,6.562214760531576
18,6.533943453170792
19,9.460987862759819
20,10.7
21,5.6241467739899855
22,5.577618734864513
23,14.962655104115946
2,1,12,10, 0, 2, 3.00, 4.00,Sunday
7,4.906666666666667
8,2144466.1399369896
9,2276786.5908275233
10,176.6793721263959
11,6.511933681302495
12,6.483748013018463
13,6.499917125075941
14,6.471639166291075
15,6.492750283043633
16,6.464404763250515
17,6.492750283043633
18,6.464404763250515
19,9.456394498593362
20,10.7
21,5.554782621392875
22,5.5081119429003245
23,15.880981458287906
2,1,12,10, 0, 2, 4.00, 5.00,Sunday
7,4.908333333333334
8,2276786.5908275233
9,1024454.8866661659
10,183.82048462912155
11,6.533663857301608
12,6.5036901308062856
13,6.521656823895341
14,6.491585115308121
15,6.514513009914232
16,6.484373267709747
17,6.514513009914232
18,6.484373267709747
19,9.51383818681883
20,10.7
21,5.5920717642355315
22,5.543307122013628
23,17.216274071222646
2,1,12,10, 0, 2, 5.00, 6.00,Sunday
7,4.91
8,1024454.8866661659
9,0.0
10,110.8440403557628
11,6.655555267241007
12,6.6227276791242575
13,6.64314039675882
14,6.610202242100156
15,6.636043612878389
16,6.603037040671856
17,6.636043612878374
18,6.60303704067184
19,9.614333106381043
20,10.7
21,5.740839180252572
22,5.688814015389068
23,17.998999207101047
2,1,12,10, 0, 2, 6.00, 7.00,Sunday
7,4.911666666666666
8,0.0
9,0.0
10,0.0
11,6.805578517435456
12,6.770916602578736
13,6.792384747359152
14,6.7575982848271465
15,6.785334793041924
16,6.750479980966007
17,6.785334793041911
18,6.750479980965995
19,9.684353109001705
20,10.7
21,5.9130490118177415
22,5.8589950821735
23,17.838003690140596
2,1,12,10, 0, 2, 7.00, 8.00,Sunday
7,4.913333333333334
8,0.0
9,0.0
10,0.0
11,6.897230223367277
12,6.862748834969853
13,6.8831454467926365
14,6.848530488405871
15,6.876118958038053
16,6.841436036513936
17,6.8761189580380435
18,6.841436036513927
19,9.685353669505552
20,10.7
21,6.009438328249886
22,5.955662375444882
23,17.207685710468567
2,1,12,10, 0, 2, 8.00, 9.00,Sunday
7,4.915
8,0.0
9,0.0
10,0.0
11,6.9091225847086335
12,6.875877366640213
13,6.894278833672802
14,6.860897158959932
15,6.8872491611479045
16,6.853799885321693
17,6.887249161147898
18,6.853799885321687
19,9.64444164374555
20,10.7
21,6.011033652423045
22,5.958701695058697
23,16.4861437396973
2,1,12,10, 0, 2, 9.00,10.00,Sunday
7,4.916666666666667
8,0.0
9,0.0
10,0.0
11,6.858892426383101
12,6.827148543454872
13,6.8435483538453745
14,6.811669703296359
15,6.836498047338297
16,6.804552048517709
17,6.836498047338291
18,6.804552048517705
19,9.59028447327837
20,10.7
21,5.943731235235224
22,5.893116491958837
23,15.822918612361775
2,1,12,10, 0, 2,10.00,11.00,Sunday
7,4.918333333333334
8,0.0
9,297496.7312322178
10,10.624883258293494
11,6.77139534297512
12,6.741089161636622
13,6.755833777017873
14,6.725397199944917
15,6.7487559924078635
16,6.718252218201623
17,6.748755992407861
18,6.718252218201619
19,9.536312133123195
20,10.7
21,5.838945068845221
22,5.789957603066465
23,15.23853340252984
2,1,12,10, 0, 2,11.00,12.00,Sunday
7,4.92
8,297496.7312322178
9,1328846.6722885733
10,56.312879106503146
11,6.665362129136078
12,6.636369141274626
13,6.649834474370836
14,6.620716825754731
15,6.642729294498438
16,6.61354453674143
17,6.642729294498437
18,6.613544536741429
19,9.48612175291154
20,10.7
21,5.718494555932673
22,5.6709831056268305
23,14.85903772219267
2,1,12,10, 0, 2,12.00,13.00,Sunday
7,4.921666666666667
8,1328846.6722885733
9,2179610.062546661
10,124.7706157749429
11,6.5626838901566105
12,6.534604755874254
13,6.547362922849092
14,6.519164454475442
15,6.540236717857615
16,6.511971122971323
17,6.540236717857613
18,6.51197112297132
19,9.449867587421721
20,10.7
21,5.60676289682185
22,5.560259718107678
23,15.104969501776937
2,1,12,10, 0, 2,13.00,14.00,Sunday
7,4.923333333333334
8,2179610.062546661
9,2085914.110631146
10,178.47244566832669
11,6.509380156376903
12,6.4809433735097945
13,6.4942533052983995
14,6.4656978729044
15,6.487125149196263
16,6.458502307761732
17,6.487125149196262
18,6.458502307761731
19,9.45817653316449
20,10.7
21,5.55571833844363
22,5.508751605150588
23,16.09969432615601
2,1,12,10, 0, 2,14.00,15.00,Sunday
7,4.925000000000001
8,2085914.110631146
9,665384.9451767637
10,172.49078609896617
11,6.5490449079558095
12,6.518625075957363
13,6.5338240243045815
14,6.503277721807519
15,6.526722118791953
16,6.496107942728271
17,6.526722118791953
18,6.496107942728271
19,9.525916085169287
20,10.7
21,5.61249439718815
22,5.563216187381374
23,17.3564198465669
2,1,12,10, 0, 2,15.00,16.00,Sunday
7,4.926666666666667
8,665384.9451767637
9,0.0
10,91.10559530495212
11,6.677701951473631
12,6.644553827825343
13,6.661898753340636
14,6.628608555690042
15,6.654843411693899
16,6.621485024080223
17,6.654843411693899
18,6.621485024080223
19,9.6254124564999
20,10.7
21,5.767068617338941
22,5.714678762158531
23,17.896611881640354
2,1,12,10, 0, 2,16.00,17.00,Sunday
7,4.928333333333334
8,0.0
9,0.0
10,0.0
11,6.812529078276108
12,6.778062209711012
13,6.7957748489558805
14,6.761150706488216
15,6.788760577119324
16,6.75406839820652
17,6.788760577119324
18,6.75406839820652
19,9.679678228087038
20,10.7
21,5.9197836014938074
22,5.865952929941969
23,17.606292057547666
2,1,12,10, 0, 2,17.00,18.00,Sunday
7,4.93
8,0.0
9,0.0
10,0.0
11,6.882810834749149
12,6.848817064634959
13,6.865060459796044
14,6.830901036724884
15,6.858063008649575
16,6.823835933812757
17,6.858063008649575
18,6.823835933812757
19,9.66912945092447
20,10.7
21,5.990927369832493
22,5.937698319093031
23,16.94998540380175
2,1,12,10, 0, 2,18.00,19.00,Sunday
7,4.931666666666667
8,0.0
9,0.0
10,0.0
11,6.878016773148162
12,6.845332686811012
13,6.859490250882369
14,6.826639371748102
15,6.852485268426731
16,6.819567069853145
17,6.852485268426731
18,6.819567069853145
19,9.624633700600441
20,10.7
21,5.97412156945867
22,5.9224135766772505
23,16.24619638752515
2,1,12,10, 0, 2,19.00,20.00,Sunday
7,4.933333333333334
8,0.0
9,0.0
10,0.0
11,6.818152629113873
12,6.786945903567413
13,6.799188204115963
14,6.767818569024278
15,6.792161106937168
16,6.760724375596426
17,6.792161106937168
18,6.760724375596426
19,9.57088928729184
20,10.7
21,5.897327172383984