Program Version,EnergyPlus, Version 25.1.0-1c11a3d85f, YMD=2026.04.10 14:05
1,5,Environment Title[],Latitude[deg],Longitude[deg],Time Zone[],Elevation[m]
2,8,Day of Simulation[],Month[],Day of Month[],DST Indicator[1=yes 0=no],Hour[],StartMinute[],EndMinute[],DayType
3,5,Cumulative Day of Simulation[],Month[],Day of Month[],DST Indicator[1=yes 0=no],DayType  ! When Daily Report Variables Requested
4,2,Cumulative Days of Simulation[],Month[]  ! When Monthly Report Variables Requested
5,1,Cumulative Days of Simulation[] ! When Run Period Report Variables Requested
6,1,Calendar Year of Simulation[] ! When Annual Report Variables Requested
7,1,Environment,Site Outdoor Air Drybulb Temperature [C] !TimeStep
8,1,WALL_N,Surface Inside Face Temperature [C] !Hourly
9,1,WALL_S,Surface Inside Face Temperature [C] !Hourly
10,1,WALL_E,Surface Inside Face Temperature [C] !Hourly
11,1,WALL_W,Surface Inside Face Temperature [C] !Hourly
12,1,FLOOR,Surface Inside Face Temperature [C] !Hourly
13,1,ROOF,Surface Inside Face Temperature [C] !Hourly
14,1,ROOF_GLASS,Surface Inside Face Temperature [C] !Hourly
15,1,WALL_N_GLASS,Surface Inside Face Temperature [C] !Hourly
16,1,WALL_S_GLASS,Surface Inside Face Temperature [C] !Hourly
17,1,WALL_E_GLASS,Surface Inside Face Temperature [C] !Hourly
18,1,WALL_W_GLASS,Surface Inside Face Temperature [C] !Hourly
19,1,GREENHOUSE,Zone Mean Air Temperature [C] !TimeStep
End of Data Dictionary
1,RUN PERIOD 1,  45.73,   5.08,   1.00, 240.00
2,1, 7, 1, 0, 1, 0.00, 1.00,Sunday
7,16.97
19,36.96714124490116
2,1, 7, 1, 0, 1, 1.00, 2.00,Sunday
7,16.94
19,36.93774801123019
2,1, 7, 1, 0, 1, 2.00, 3.00,Sunday
7,16.91
19,36.906869985778975
2,1, 7, 1, 0, 1, 3.00, 4.00,Sunday
7,16.88
19,36.874579187331186
2,1, 7, 1, 0, 1, 4.00, 5.00,Sunday
7,16.849999999999998
19,36.84105292387719
2,1, 7, 1, 0, 1, 5.00, 6.00,Sunday
7,16.82
19,36.806464928486015
2,1, 7, 1, 0, 1, 6.00, 7.00,Sunday
7,16.79
19,36.770958633850384
2,1, 7, 1, 0, 1, 7.00, 8.00,Sunday
7,16.76
19,36.73465129981084
2,1, 7, 1, 0, 1, 8.00, 9.00,Sunday
7,16.73
19,36.69764238318226
2,1, 7, 1, 0, 1, 9.00,10.00,Sunday
7,16.700000000000003
19,36.660018747268886
2,1, 7, 1, 0, 1,10.00,11.00,Sunday
7,16.669999999999998
19,36.62185702466688
2,1, 7, 1, 0, 1,11.00,12.00,Sunday
7,16.64
19,36.58322473797185
2,1, 7, 1, 0, 1,12.00,13.00,Sunday
7,16.61
19,36.544181134300345
2,1, 7, 1, 0, 1,13.00,14.00,Sunday
7,16.58
19,36.50477802900736
2,1, 7, 1, 0, 1,14.00,15.00,Sunday
7,16.55
19,36.4650606597073
2,1, 7, 1, 0, 1,15.00,16.00,Sunday
7,16.520000000000003
19,36.425068494170624
2,1, 7, 1, 0, 1,16.00,17.00,Sunday
7,16.490000000000002
19,36.38483595815386
2,1, 7, 1, 0, 1,17.00,18.00,Sunday
7,16.459999999999997
19,36.34439307613054
2,1, 7, 1, 0, 1,18.00,19.00,Sunday
7,16.43
19,36.30376603132517
2,1, 7, 1, 0, 1,19.00,20.00,Sunday
7,16.4
19,36.26297765487758
2,1, 7, 1, 0, 1,20.00,21.00,Sunday
7,16.37
19,36.2220478533325
2,1, 7, 1, 0, 1,21.00,22.00,Sunday
7,16.339999999999996
19,36.180993982236814
2,1, 7, 1, 0, 1,22.00,23.00,Sunday
7,16.310000000000002
19,36.13983117247547
2,1, 7, 1, 0, 1,23.00,24.00,Sunday
7,16.28
19,36.09857261514331
2,1, 7, 1, 0, 1,24.00,25.00,Sunday
7,16.25
19,36.05722981008833
2,1, 7, 1, 0, 1,25.00,26.00,Sunday
7,16.22
19,36.01581278268425
2,1, 7, 1, 0, 1,26.00,27.00,Sunday
7,16.19
19,35.97433027285257
2,1, 7, 1, 0, 1,27.00,28.00,Sunday
7,16.16
19,35.93278989986689
2,1, 7, 1, 0, 1,28.00,29.00,Sunday
7,16.13
19,35.89119830603112
2,1, 7, 1, 0, 1,29.00,30.00,Sunday
7,16.1
19,35.8497073423805
2,1, 7, 1, 0, 1,30.00,31.00,Sunday
7,16.07
19,35.808498590195214
2,1, 7, 1, 0, 1,31.00,32.00,Sunday
7,16.04
19,35.76763600576289
2,1, 7, 1, 0, 1,32.00,33.00,Sunday
7,16.009999999999998
19,35.727102793308035
2,1, 7, 1, 0, 1,33.00,34.00,Sunday
7,15.98
19,35.68685512569313
2,1, 7, 1, 0, 1,34.00,35.00,Sunday
7,15.95
19,35.646849868531646
2,1, 7, 1, 0, 1,35.00,36.00,Sunday
7,15.92
19,35.60705182930576
2,1, 7, 1, 0, 1,36.00,37.00,Sunday
7,15.889999999999999
19,35.56743279632825
2,1, 7, 1, 0, 1,37.00,38.00,Sunday
7,15.86
19,35.52796926764638
2,1, 7, 1, 0, 1,38.00,39.00,Sunday
7,15.829999999999998
19,35.48864095618778
2,1, 7, 1, 0, 1,39.00,40.00,Sunday
7,15.8
19,35.44943007667933
2,1, 7, 1, 0, 1,40.00,41.00,Sunday
7,15.77
19,35.41032100906179
2,1, 7, 1, 0, 1,41.00,42.00,Sunday
7,15.739999999999998
19,35.37130007275017
2,1, 7, 1, 0, 1,42.00,43.00,Sunday
7,15.709999999999999
19,35.33235531682269
2,1, 7, 1, 0, 1,43.00,44.00,Sunday
7,15.68
19,35.29347631468629
2,1, 7, 1, 0, 1,44.00,45.00,Sunday
7,15.649999999999999
19,35.25465397260385
2,1, 7, 1, 0, 1,45.00,46.00,Sunday
7,15.620000000000001
19,35.215880358785654
2,1, 7, 1, 0, 1,46.00,47.00,Sunday
7,15.59
19,35.17714855406653
2,1, 7, 1, 0, 1,47.00,48.00,Sunday
7,15.559999999999999
19,35.13845252218245
2,1, 7, 1, 0, 1,48.00,49.00,Sunday
7,15.53
19,35.099786996963424
2,1, 7, 1, 0, 1,49.00,50.00,Sunday
7,15.499999999999998
19,35.06114738403403
2,1, 7, 1, 0, 1,50.00,51.00,Sunday
7,15.47
19,35.0225296750548
2,1, 7, 1, 0, 1,51.00,52.00,Sunday
7,15.44
19,34.98393037288289
2,1, 7, 1, 0, 1,52.00,53.00,Sunday
7,15.41
19,34.94534642627144
2,1, 7, 1, 0, 1,53.00,54.00,Sunday
7,15.379999999999999
19,34.90677517290364
2,1, 7, 1, 0, 1,54.00,55.00,Sunday
7,15.35
19,34.86821428970378
2,1, 7, 1, 0, 1,55.00,56.00,Sunday
7,15.319999999999999
19,34.8296617494982
2,1, 7, 1, 0, 1,56.00,57.00,Sunday
7,15.290000000000001
19,34.79111578321602
2,1, 7, 1, 0, 1,57.00,58.00,Sunday
7,15.26
19,34.75257484692012
2,1, 7, 1, 0, 1,58.00,59.00,Sunday
7,15.23
19,34.714037593051934
2,1, 7, 1, 0, 1,59.00,60.00,Sunday
7,15.2
19,34.67550284535065
2,1, 7, 1, 0, 1, 0.00,60.00,Sunday
8,25.097236652399562
9,25.27662474169725
10,25.308953166161082
11,25.305917195023685
12,47.81639346376515
13,25.312818042195513
14,25.24256980918926
15,24.479840736756994
16,24.646013224060866
17,24.681932731239424
18,24.6819289567831
2,1, 7, 1, 0, 2, 0.00, 1.00,Sunday
7,15.174999999999999
19,34.6370305418893
2,1, 7, 1, 0, 2, 1.00, 2.00,Sunday
7,15.15
19,34.59905800521633
2,1, 7, 1, 0, 2, 2.00, 3.00,Sunday
7,15.125
19,34.5619210105178
2,1, 7, 1, 0, 2, 3.00, 4.00,Sunday
7,15.1
19,34.52570068531175
2,1, 7, 1, 0, 2, 4.00, 5.00,Sunday
7,15.075
19,34.49033180244468
2,1, 7, 1, 0, 2, 5.00, 6.00,Sunday
7,15.05
19,34.455707204850704
2,1, 7, 1, 0, 2, 6.00, 7.00,Sunday
7,15.024999999999999
19,34.421725581500716
2,1, 7, 1, 0, 2, 7.00, 8.00,Sunday
7,15.0
19,34.38830218827026
2,1, 7, 1, 0, 2, 8.00, 9.00,Sunday
7,14.975
19,34.355366308627474
2,1, 7, 1, 0, 2, 9.00,10.00,Sunday
7,14.95
19,34.32285720621492
2,1, 7, 1, 0, 2,10.00,11.00,Sunday
7,14.924999999999999
19,34.290721629555314
2,1, 7, 1, 0, 2,11.00,12.00,Sunday
7,14.9
19,34.25891260381068
2,1, 7, 1, 0, 2,12.00,13.00,Sunday
7,14.875
19,34.22738876493968
2,1, 7, 1, 0, 2,13.00,14.00,Sunday
7,14.85
19,34.196113818062
2,1, 7, 1, 0, 2,14.00,15.00,Sunday
7,14.825
19,34.165056000175056
2,1, 7, 1, 0, 2,15.00,16.00,Sunday
7,14.799999999999999
19,34.1341875529409
2,1, 7, 1, 0, 2,16.00,17.00,Sunday
7,14.774999999999999
19,34.10348423206187
2,1, 7, 1, 0, 2,17.00,18.00,Sunday
7,14.749999999999998
19,34.072924867480715
2,1, 7, 1, 0, 2,18.00,19.00,Sunday
7,14.725
19,34.0424909760307
2,1, 7, 1, 0, 2,19.00,20.00,Sunday
7,14.700000000000001
19,34.012166422193516
2,1, 7, 1, 0, 2,20.00,21.00,Sunday
7,14.674999999999997
19,33.98193712124434
2,1, 7, 1, 0, 2,21.00,22.00,Sunday
7,14.649999999999999
19,33.95179077948268
2,1, 7, 1, 0, 2,22.00,23.00,Sunday
7,14.625
19,33.921716666983656
2,1, 7, 1, 0, 2,23.00,24.00,Sunday
7,14.6
19,33.89170541891599
2,1, 7, 1, 0, 2,24.00,25.00,Sunday
7,14.575
19,33.86174886194538
2,1, 7, 1, 0, 2,25.00,26.00,Sunday
7,14.55
19,33.831839862629465
2,1, 7, 1, 0, 2,26.00,27.00,Sunday
7,14.524999999999999
19,33.80197219506196
2,1, 7, 1, 0, 2,27.00,28.00,Sunday
7,14.5
19,33.772140425343906
2,1, 7, 1, 0, 2,28.00,29.00,Sunday
7,14.474999999999998
19,33.742339810755425
2,1, 7, 1, 0, 2,29.00,30.00,Sunday
7,14.45
19,33.71256621176353
2,1, 7, 1, 0, 2,30.00,31.00,Sunday
7,14.425
19,33.68281601523463
2,1, 7, 1, 0, 2,31.00,32.00,Sunday
7,14.399999999999999
19,33.653086067427886
2,1, 7, 1, 0, 2,32.00,33.00,Sunday
7,14.375
19,33.6233736155237
2,1, 7, 1, 0, 2,33.00,34.00,Sunday
7,14.35
19,33.59367625659969
2,1, 7, 1, 0, 2,34.00,35.00,Sunday
7,14.325
19,33.56399189310597
2,1, 7, 1, 0, 2,35.00,36.00,Sunday
7,14.299999999999999
19,33.534318694011716
2,1, 7, 1, 0, 2,36.00,37.00,Sunday
7,14.275
19,33.50465506089998
2,1, 7, 1, 0, 2,37.00,38.00,Sunday
7,14.25
19,33.47499959837941
2,1, 7, 1, 0, 2,38.00,39.00,Sunday
7,14.224999999999998
19,33.445351088263784
2,1, 7, 1, 0, 2,39.00,40.00,Sunday
7,14.2
19,33.41570846703862
2,1, 7, 1, 0, 2,40.00,41.00,Sunday
7,14.174999999999999
19,33.38607080619594
2,1, 7, 1, 0, 2,41.00,42.00,Sunday
7,14.149999999999999
19,33.356437295071686
2,1, 7, 1, 0, 2,42.00,43.00,Sunday
7,14.125
19,33.32680722586735
2,1, 7, 1, 0, 2,43.00,44.00,Sunday
7,14.099999999999998
19,33.29717998057719
2,1, 7, 1, 0, 2,44.00,45.00,Sunday
7,14.075
19,33.26755501957922
2,1, 7, 1, 0, 2,45.00,46.00,Sunday
7,14.049999999999999
19,33.23793187167633
2,1, 7, 1, 0, 2,46.00,47.00,Sunday
7,14.024999999999999
19,33.2083101254047
2,1, 7, 1, 0, 2,47.00,48.00,Sunday
7,14.0
19,33.17868942144684
2,1, 7, 1, 0, 2,48.00,49.00,Sunday
7,13.975
19,33.14906944600969
2,1, 7, 1, 0, 2,49.00,50.00,Sunday
7,13.95
19,33.11944992504463
2,1, 7, 1, 0, 2,50.00,51.00,Sunday
7,13.925
19,33.089830619201706
2,1, 7, 1, 0, 2,51.00,52.00,Sunday
7,13.899999999999999
19,33.060288171139554
2,1, 7, 1, 0, 2,52.00,53.00,Sunday
7,13.874999999999998
19,33.03091499900637
2,1, 7, 1, 0, 2,53.00,54.00,Sunday
7,13.85
19,33.001742196002915
2,1, 7, 1, 0, 2,54.00,55.00,Sunday
7,13.825
19,32.972758901319295
2,1, 7, 1, 0, 2,55.00,56.00,Sunday
7,13.8
19,32.943940388955625
2,1, 7, 1, 0, 2,56.00,57.00,Sunday
7,13.774999999999999
19,32.915262520049716
2,1, 7, 1, 0, 2,57.00,58.00,Sunday
7,13.749999999999998
19,32.88670549206717
2,1, 7, 1, 0, 2,58.00,59.00,Sunday
7,13.725
19,32.85825330881158
2,1, 7, 1, 0, 2,59.00,60.00,Sunday
7,13.7
19,32.829892574655005
2,1, 7, 1, 0, 2, 0.00,60.00,Sunday
8,23.08888758769272
9,23.265152202939383
10,23.126084071506817
11,23.29715259914675
12,45.84242438578291
13,23.11702502994988
14,23.077613419840933
15,22.492507019870907
16,22.655834083294256
17,22.527448390305167
18,22.69139170056113
2,1, 7, 1, 0, 3, 0.00, 1.00,Sunday
7,13.68
19,32.80229751505236
2,1, 7, 1, 0, 3, 1.00, 2.00,Sunday
7,13.659999999999998
19,32.77566801799343
2,1, 7, 1, 0, 3, 2.00, 3.00,Sunday
7,13.639999999999999
19,32.749946387593816
2,1, 7, 1, 0, 3, 3.00, 4.00,Sunday
7,13.620000000000001
19,32.725005160450586
2,1, 7, 1, 0, 3, 4.00, 5.00,Sunday
7,13.599999999999998
19,32.700725977717624
2,1, 7, 1, 0, 3, 5.00, 6.00,Sunday
7,13.58
19,32.67701448330903
2,1, 7, 1, 0, 3, 6.00, 7.00,Sunday
7,13.559999999999999
19,32.653794465081695
2,1, 7, 1, 0, 3, 7.00, 8.00,Sunday
7,13.54
19,32.63100093474366
2,1, 7, 1, 0, 3, 8.00, 9.00,Sunday
7,13.52
19,32.60857648617569
2,1, 7, 1, 0, 3, 9.00,10.00,Sunday
7,13.5
19,32.58646993848445
2,1, 7, 1, 0, 3,10.00,11.00,Sunday
7,13.479999999999999
19,32.56463580737864
2,1, 7, 1, 0, 3,11.00,12.00,Sunday
7,13.46
19,32.54303387904175
2,1, 7, 1, 0, 3,12.00,13.00,Sunday
7,13.44
19,32.52162871320685
2,1, 7, 1, 0, 3,13.00,14.00,Sunday
7,13.419999999999998
19,32.5003891098716
2,1, 7, 1, 0, 3,14.00,15.00,Sunday
7,13.399999999999999
19,32.47955505622966
2,1, 7, 1, 0, 3,15.00,16.00,Sunday
7,13.38
19,32.45875581786147
2,1, 7, 1, 0, 3,16.00,17.00,Sunday
7,13.36
19,32.43792165685497
2,1, 7, 1, 0, 3,17.00,18.00,Sunday
7,13.339999999999998
19,32.41707830214859
2,1, 7, 1, 0, 3,18.00,19.00,Sunday
7,13.32
19,32.39626399348403
2,1, 7, 1, 0, 3,19.00,20.00,Sunday
7,13.3
19,32.375491798098544
2,1, 7, 1, 0, 3,20.00,21.00,Sunday
7,13.28
19,32.35475613218959
2,1, 7, 1, 0, 3,21.00,22.00,Sunday
7,13.259999999999998
19,32.33404478266026
2,1, 7, 1, 0, 3,22.00,23.00,Sunday
7,13.240000000000002
19,32.31334546109073
2,1, 7, 1, 0, 3,23.00,24.00,Sunday
7,13.219999999999999
19,32.292647648340846
2,1, 7, 1, 0, 3,24.00,25.00,Sunday
7,13.2
19,32.271942459322055
2,1, 7, 1, 0, 3,25.00,26.00,Sunday
7,13.18
19,32.251222147744016
2,1, 7, 1, 0, 3,26.00,27.00,Sunday
7,13.16
19,32.23047976631342
2,1, 7, 1, 0, 3,27.00,28.00,Sunday
7,13.139999999999999
19,32.20970900001582
2,1, 7, 1, 0, 3,28.00,29.00,Sunday
7,13.12
19,32.18890408396298
2,1, 7, 1, 0, 3,29.00,30.00,Sunday
7,13.1
19,32.168059745616894
2,1, 7, 1, 0, 3,30.00,31.00,Sunday
7,13.079999999999998
19,32.14717114990654
2,1, 7, 1, 0, 3,31.00,32.00,Sunday
7,13.06
19,32.12623384499086
2,1, 7, 1, 0, 3,32.00,33.00,Sunday
7,13.04
19,32.10524371115613
2,1, 7, 1, 0, 3,33.00,34.00,Sunday
7,13.02
19,32.08419691458178
2,1, 7, 1, 0, 3,34.00,35.00,Sunday
7,13.0
19,32.06308986628327
2,1, 7, 1, 0, 3,35.00,36.00,Sunday
7,12.98
19,32.041919185773835
2,1, 7, 1, 0, 3,36.00,37.00,Sunday
7,12.96
19,32.02068166878763
2,1, 7, 1, 0, 3,37.00,38.00,Sunday
7,12.94
19,31.999374258445783
2,1, 7, 1, 0, 3,38.00,39.00,Sunday
7,12.919999999999998
19,31.97799401933052
2,1, 7, 1, 0, 3,39.00,40.00,Sunday
7,12.899999999999999
19,31.956538113996537
2,1, 7, 1, 0, 3,40.00,41.00,Sunday
7,12.879999999999999
19,31.935003781485886
2,1, 7, 1, 0, 3,41.00,42.00,Sunday
7,12.86
19,31.91338831743281
2,1, 7, 1, 0, 3,42.00,43.00,Sunday
7,12.84
19,31.89168905535345
2,1, 7, 1, 0, 3,43.00,44.00,Sunday
7,12.82
19,31.869903348711684
2,1, 7, 1, 0, 3,44.00,45.00,Sunday
7,12.8
19,31.84802855333126
2,1, 7, 1, 0, 3,45.00,46.00,Sunday
7,12.78
19,31.82606200968662
2,1, 7, 1, 0, 3,46.00,47.00,Sunday
7,12.76
19,31.80400102453483
2,1, 7, 1, 0, 3,47.00,48.00,Sunday
7,12.739999999999998
19,31.781842851241617
2,1, 7, 1, 0, 3,48.00,49.00,Sunday
7,12.72
19,31.759584667982647
2,1, 7, 1, 0, 3,49.00,50.00,Sunday
7,12.700000000000001
19,31.737025384220342
2,1, 7, 1, 0, 3,50.00,51.00,Sunday
7,12.68
19,31.714450317836388
2,1, 7, 1, 0, 3,51.00,52.00,Sunday
7,12.66
19,31.691663049647953
2,1, 7, 1, 0, 3,52.00,53.00,Sunday
7,12.64
19,31.66868732959301
2,1, 7, 1, 0, 3,53.00,54.00,Sunday
7,12.62
19,31.645586410764565
2,1, 7, 1, 0, 3,54.00,55.00,Sunday
7,12.6
19,31.622390915622617
2,1, 7, 1, 0, 3,55.00,56.00,Sunday
7,12.579999999999998
19,31.5991033798429
2,1, 7, 1, 0, 3,56.00,57.00,Sunday
7,12.56
19,31.575714367960803
2,1, 7, 1, 0, 3,57.00,58.00,Sunday
7,12.540000000000001
19,31.55221168960759
2,1, 7, 1, 0, 3,58.00,59.00,Sunday
7,12.52
19,31.52858256570334
2,1, 7, 1, 0, 3,59.00,60.00,Sunday
7,12.5
19,31.504810400760846
2,1, 7, 1, 0, 3, 0.00,60.00,Sunday
8,21.911971526062985
9,21.88993866836389
10,21.875004908517205
11,21.98804333937858
12,44.15636067822159
13,21.768909691409963
14,21.738485565022334
15,21.32517972002157
16,21.29902381245471
17,21.295323946545203
18,21.396349301257974
2,1, 7, 1, 0, 4, 0.00, 1.00,Sunday
7,12.486666666666666
19,31.481255781126805
2,1, 7, 1, 0, 4, 1.00, 2.00,Sunday
7,12.473333333333334
19,31.457942387934228
2,1, 7, 1, 0, 4, 2.00, 3.00,Sunday
7,12.46
19,31.434806835652836
2,1, 7, 1, 0, 4, 3.00, 4.00,Sunday
7,12.446666666666665
19,31.41179732060426
2,1, 7, 1, 0, 4, 4.00, 5.00,Sunday
7,12.433333333333332
19,31.38888648762919
2,1, 7, 1, 0, 4, 5.00, 6.00,Sunday
7,12.42
19,31.366060942816226
2,1, 7, 1, 0, 4, 6.00, 7.00,Sunday
7,12.406666666666666
19,31.343312019257432
2,1, 7, 1, 0, 4, 7.00, 8.00,Sunday
7,12.393333333333334
19,31.320631895767264
2,1, 7, 1, 0, 4, 8.00, 9.00,Sunday
7,12.379999999999999
19,31.298012884821247
2,1, 7, 1, 0, 4, 9.00,10.00,Sunday
7,12.366666666666667
19,31.275447701586135
2,1, 7, 1, 0, 4,10.00,11.00,Sunday
7,12.353333333333333
19,31.252929737703074
2,1, 7, 1, 0, 4,11.00,12.00,Sunday
7,12.34
19,31.23045314338141
2,1, 7, 1, 0, 4,12.00,13.00,Sunday
7,12.326666666666666
19,31.20801278518988
2,1, 7, 1, 0, 4,13.00,14.00,Sunday
7,12.313333333333333
19,31.185698882186674
2,1, 7, 1, 0, 4,14.00,15.00,Sunday
7,12.3
19,31.16361408822431
2,1, 7, 1, 0, 4,15.00,16.00,Sunday
7,12.286666666666667
19,31.141797414782097
2,1, 7, 1, 0, 4,16.00,17.00,Sunday
7,12.273333333333333
19,31.120236755290062
2,1, 7, 1, 0, 4,17.00,18.00,Sunday
7,12.26
19,31.098901172417865
2,1, 7, 1, 0, 4,18.00,19.00,Sunday
7,12.246666666666666
19,31.07775936226916
2,1, 7, 1, 0, 4,19.00,20.00,Sunday
7,12.233333333333334
19,31.05678509532939
2,1, 7, 1, 0, 4,20.00,21.00,Sunday
7,12.219999999999999
19,31.035956941033696
2,1, 7, 1, 0, 4,21.00,22.00,Sunday
7,12.206666666666665
19,31.01525686163023
2,1, 7, 1, 0, 4,22.00,23.00,Sunday
7,12.193333333333335
19,30.994669208258685
2,1, 7, 1, 0, 4,23.00,24.00,Sunday
7,12.18
19,30.974180212818048
2,1, 7, 1, 0, 4,24.00,25.00,Sunday
7,12.166666666666666
19,30.953777735824104
2,1, 7, 1, 0, 4,25.00,26.00,Sunday
7,12.153333333333332
19,30.933451096193668
2,1, 7, 1, 0, 4,26.00,27.00,Sunday
7,12.14
19,30.91319091628935
2,1, 7, 1, 0, 4,27.00,28.00,Sunday
7,12.126666666666667
19,30.89298897198268
2,1, 7, 1, 0, 4,28.00,29.00,Sunday
7,12.113333333333332
19,30.87283805295436
2,1, 7, 1, 0, 4,29.00,30.00,Sunday
7,12.1
19,30.852731837482192
2,1, 7, 1, 0, 4,30.00,31.00,Sunday
7,12.086666666666666
19,30.832664782413428
2,1, 7, 1, 0, 4,31.00,32.00,Sunday
7,12.073333333333332
19,30.81263202701404
2,1, 7, 1, 0, 4,32.00,33.00,Sunday
7,12.059999999999999
19,30.79262930888848
2,1, 7, 1, 0, 4,33.00,34.00,Sunday
7,12.046666666666667
19,30.772652890323748
2,1, 7, 1, 0, 4,34.00,35.00,Sunday
7,12.033333333333333
19,30.752699493697527
2,1, 7, 1, 0, 4,35.00,36.00,Sunday
7,12.02
19,30.732766244821324
2,1, 7, 1, 0, 4,36.00,37.00,Sunday
7,12.006666666666666
19,30.71285062324987
2,1, 7, 1, 0, 4,37.00,38.00,Sunday
7,11.993333333333332
19,30.69295041870724
2,1, 7, 1, 0, 4,38.00,39.00,Sunday
7,11.98
19,30.673063692882046
2,1, 7, 1, 0, 4,39.00,40.00,Sunday
7,11.966666666666665
19,30.653188745931715
2,1, 7, 1, 0, 4,40.00,41.00,Sunday
7,11.953333333333333
19,30.633324087115287
2,1, 7, 1, 0, 4,41.00,42.00,Sunday
7,11.94
19,30.613468409045733
2,1, 7, 1, 0, 4,42.00,43.00,Sunday
7,11.926666666666666
19,30.593620565115327
2,1, 7, 1, 0, 4,43.00,44.00,Sunday
7,11.913333333333332
19,30.57377954970324
2,1, 7, 1, 0, 4,44.00,45.00,Sunday
7,11.899999999999999
19,30.553944480821897
2,1, 7, 1, 0, 4,45.00,46.00,Sunday
7,11.886666666666667
19,30.534114584900983
2,1, 7, 1, 0, 4,46.00,47.00,Sunday
7,11.873333333333333
19,30.514289183446543
2,1, 7, 1, 0, 4,47.00,48.00,Sunday
7,11.86
19,30.49446768134277
2,1, 7, 1, 0, 4,48.00,49.00,Sunday
7,11.846666666666668
19,30.47464955659527
2,1, 7, 1, 0, 4,49.00,50.00,Sunday
7,11.833333333333332
19,30.454834351336572
2,1, 7, 1, 0, 4,50.00,51.00,Sunday
7,11.819999999999999
19,30.435021663939736
2,1, 7, 1, 0, 4,51.00,52.00,Sunday
7,11.806666666666667
19,30.41521114210262
2,1, 7, 1, 0, 4,52.00,53.00,Sunday
7,11.793333333333333
19,30.39540247678306
2,1, 7, 1, 0, 4,53.00,54.00,Sunday
7,11.78
19,30.375595396881064
2,1, 7, 1, 0, 4,54.00,55.00,Sunday
7,11.766666666666667
19,30.355789664575227
2,1, 7, 1, 0, 4,55.00,56.00,Sunday
7,11.753333333333334
19,30.335985071232702
2,1, 7, 1, 0, 4,56.00,57.00,Sunday
7,11.739999999999998
19,30.31618143382261
2,1, 7, 1, 0, 4,57.00,58.00,Sunday
7,11.726666666666665
19,30.29637859177045
2,1, 7, 1, 0, 4,58.00,59.00,Sunday
7,11.713333333333333
19,30.27657640419951
2,1, 7, 1, 0, 4,59.00,60.00,Sunday
7,11.7
19,30.256774747511283
2,1, 7, 1, 0, 4, 0.00,60.00,Sunday
8,20.893389295322393
9,20.892812474542414
10,20.924331590205803
11,20.924523347842303
12,42.63536770985631
13,20.675226553266967
14,20.6409284306094
15,20.30106181376802
16,20.300620306237615
17,20.335179978127375
18,20.335178124895318
2,1, 7, 1, 0, 5, 0.00, 1.00,Sunday
7,11.693333333333332
19,30.23707201059523
2,1, 7, 1, 0, 5, 1.00, 2.00,Sunday
7,11.686666666666666
19,30.217557806576416
2,1, 7, 1, 0, 5, 2.00, 3.00,Sunday
7,11.679999999999998
19,30.198259669601143
2,1, 7, 1, 0, 5, 3.00, 4.00,Sunday
7,11.673333333333334
19,30.179165368856204
2,1, 7, 1, 0, 5, 4.00, 5.00,Sunday
7,11.666666666666666
19,30.160250090526166
2,1, 7, 1, 0, 5, 5.00, 6.00,Sunday
7,11.66
19,30.1414897524981
2,1, 7, 1, 0, 5, 6.00, 7.00,Sunday
7,11.653333333333332
19,30.12286428073751
2,1, 7, 1, 0, 5, 7.00, 8.00,Sunday
7,11.646666666666668
19,30.10435706644275
2,1, 7, 1, 0, 5, 8.00, 9.00,Sunday
7,11.639999999999999
19,30.085953898210967
2,1, 7, 1, 0, 5, 9.00,10.00,Sunday
7,11.633333333333333
19,30.067642293104925
2,1, 7, 1, 0, 5,10.00,11.00,Sunday
7,11.626666666666667
19,30.049411187055156
2,1, 7, 1, 0, 5,11.00,12.00,Sunday
7,11.62
19,30.031250782837404
2,1, 7, 1, 0, 5,12.00,13.00,Sunday
7,11.613333333333333
19,30.013152435329356
2,1, 7, 1, 0, 5,13.00,14.00,Sunday
7,11.606666666666666
19,29.99510853675939
2,1, 7, 1, 0, 5,14.00,15.00,Sunday
7,11.599999999999998
19,29.97711240158794
2,1, 7, 1, 0, 5,15.00,16.00,Sunday
7,11.593333333333334
19,29.95915815786551
2,1, 7, 1, 0, 5,16.00,17.00,Sunday
7,11.586666666666666
19,29.94124064913455
2,1, 7, 1, 0, 5,17.00,18.00,Sunday
7,11.58
19,29.923355347641515
2,1, 7, 1, 0, 5,18.00,19.00,Sunday
7,11.573333333333334
19,29.905498278008043
2,1, 7, 1, 0, 5,19.00,20.00,Sunday
7,11.566666666666666
19,29.887665950120073
2,1, 7, 1, 0, 5,20.00,21.00,Sunday
7,11.559999999999999
19,29.869855300087558
2,1, 7, 1, 0, 5,21.00,22.00,Sunday
7,11.553333333333333
19,29.85206363830456
2,1, 7, 1, 0, 5,22.00,23.00,Sunday
7,11.546666666666667
19,29.834288603777782
2,1, 7, 1, 0, 5,23.00,24.00,Sunday
7,11.54
19,29.81652812399108
2,1, 7, 1, 0, 5,24.00,25.00,Sunday
7,11.533333333333331
19,29.798780379652605
2,1, 7, 1, 0, 5,25.00,26.00,Sunday
7,11.526666666666667
19,29.781043773739874
2,1, 7, 1, 0, 5,26.00,27.00,Sunday
7,11.520000000000001
19,29.763316904325062
2,1, 7, 1, 0, 5,27.00,28.00,Sunday
7,11.513333333333332
19,29.74559854072094
2,1, 7, 1, 0, 5,28.00,29.00,Sunday
7,11.506666666666666
19,29.727887602543397
2,1, 7, 1, 0, 5,29.00,30.00,Sunday
7,11.5
19,29.71018314133428
2,1, 7, 1, 0, 5,30.00,31.00,Sunday
7,11.493333333333334
19,29.692484324433092
2,1, 7, 1, 0, 5,31.00,32.00,Sunday
7,11.486666666666668
19,29.674790420820774
2,1, 7, 1, 0, 5,32.00,33.00,Sunday
7,11.48
19,29.657100788696305
2,1, 7, 1, 0, 5,33.00,34.00,Sunday
7,11.473333333333333
19,29.639414864572696
2,1, 7, 1, 0, 5,34.00,35.00,Sunday
7,11.466666666666667
19,29.621732153706947
2,1, 7, 1, 0, 5,35.00,36.00,Sunday
7,11.46
19,29.604123250277308
2,1, 7, 1, 0, 5,36.00,37.00,Sunday
7,11.453333333333333
19,29.586667692041924
2,1, 7, 1, 0, 5,37.00,38.00,Sunday
7,11.446666666666667
19,29.569397108381693
2,1, 7, 1, 0, 5,38.00,39.00,Sunday
7,11.440000000000001
19,29.552304635185585
2,1, 7, 1, 0, 5,39.00,40.00,Sunday
7,11.433333333333334
19,29.535369053544596
2,1, 7, 1, 0, 5,40.00,41.00,Sunday
7,11.426666666666668
19,29.518568604294554
2,1, 7, 1, 0, 5,41.00,42.00,Sunday
7,11.42
19,29.501885084161763
2,1, 7, 1, 0, 5,42.00,43.00,Sunday
7,11.413333333333334
19,29.485303674313386
2,1, 7, 1, 0, 5,43.00,44.00,Sunday
7,11.406666666666668
19,29.468811920500286
2,1, 7, 1, 0, 5,44.00,45.00,Sunday
7,11.400000000000002
19,29.452399008186497
2,1, 7, 1, 0, 5,45.00,46.00,Sunday
7,11.393333333333333
19,29.436055403453835
2,1, 7, 1, 0, 5,46.00,47.00,Sunday
7,11.386666666666667
19,29.419772681861144
2,1, 7, 1, 0, 5,47.00,48.00,Sunday
7,11.38
19,29.403543416113273
2,1, 7, 1, 0, 5,48.00,49.00,Sunday
7,11.373333333333333
19,29.387361073188778
2,1, 7, 1, 0, 5,49.00,50.00,Sunday
7,11.366666666666667
19,29.371219913512814
2,1, 7, 1, 0, 5,50.00,51.00,Sunday
7,11.360000000000001
19,29.355114896258307
2,1, 7, 1, 0, 5,51.00,52.00,Sunday
7,11.353333333333335
19,29.339041594127888
2,1, 7, 1, 0, 5,52.00,53.00,Sunday
7,11.346666666666668
19,29.322996118312926
2,1, 7, 1, 0, 5,53.00,54.00,Sunday
7,11.340000000000002
19,29.30697505281482
2,1, 7, 1, 0, 5,54.00,55.00,Sunday
7,11.333333333333334
19,29.290975396919073
2,1, 7, 1, 0, 5,55.00,56.00,Sunday
7,11.326666666666666
19,29.27499451471476
2,1, 7, 1, 0, 5,56.00,57.00,Sunday
7,11.32
19,29.259030090746304
2,1, 7, 1, 0, 5,57.00,58.00,Sunday
7,11.313333333333334
19,29.24308009104245
2,1, 7, 1, 0, 5,58.00,59.00,Sunday
7,11.306666666666667
19,29.227142728875712
2,1, 7, 1, 0, 5,59.00,60.00,Sunday
7,11.3
19,29.217309548825202
2,1, 7, 1, 0, 5, 0.00,60.00,Sunday
8,19.998223638936462
9,19.997848386301577
10,20.028599096577206
11,20.028599096577203
12,41.285928354313874
13,19.744815936588562
14,19.721899930390826
15,19.432687200586802
16,19.43225461948697
17,19.465947510886917
18,19.46594751088729
2,1, 7, 1, 0, 6, 0.00, 1.00,Sunday
7,11.295
19,29.215325949460137
2,1, 7, 1, 0, 6, 1.00, 2.00,Sunday
7,11.290000000000001
19,29.21688611487653
2,1, 7, 1, 0, 6, 2.00, 3.00,Sunday
7,11.285
19,29.218578932728906
2,1, 7, 1, 0, 6, 3.00, 4.00,Sunday
7,11.28
19,29.219026529757386
2,1, 7, 1, 0, 6, 4.00, 5.00,Sunday
7,11.275
19,29.218060397677682
2,1, 7, 1, 0, 6, 5.00, 6.00,Sunday
7,11.270000000000001
19,29.215901267591082
2,1, 7, 1, 0, 6, 6.00, 7.00,Sunday
7,11.265
19,29.21278148090509
2,1, 7, 1, 0, 6, 7.00, 8.00,Sunday
7,11.260000000000002
19,29.208860327015874
2,1, 7, 1, 0, 6, 8.00, 9.00,Sunday
7,11.255
19,29.204242817916587
2,1, 7, 1, 0, 6, 9.00,10.00,Sunday
7,11.250000000000002
19,29.199008398121258
2,1, 7, 1, 0, 6,10.00,11.00,Sunday
7,11.245000000000001
19,29.193226054994184
2,1, 7, 1, 0, 6,11.00,12.00,Sunday
7,11.240000000000002
19,29.186958803609027
2,1, 7, 1, 0, 6,12.00,13.00,Sunday
7,11.235
19,29.1802640039564
2,1, 7, 1, 0, 6,13.00,14.00,Sunday
7,11.23
19,29.173193065597207
2,1, 7, 1, 0, 6,14.00,15.00,Sunday
7,11.225000000000001
19,29.16579155555297
2,1, 7, 1, 0, 6,15.00,16.00,Sunday
7,11.22
19,29.158099662305947
2,1, 7, 1, 0, 6,16.00,17.00,Sunday
7,11.215000000000002
19,29.15015278281682
2,1, 7, 1, 0, 6,17.00,18.00,Sunday
7,11.21
19,29.141982090509526
2,1, 7, 1, 0, 6,18.00,19.00,Sunday
7,11.205000000000002
19,29.133615038664814
2,1, 7, 1, 0, 6,19.00,20.00,Sunday
7,11.200000000000001
19,29.125075799180255
2,1, 7, 1, 0, 6,20.00,21.00,Sunday
7,11.195
19,29.116385647609277
2,1, 7, 1, 0, 6,21.00,22.00,Sunday
7,11.190000000000001
19,29.107563303652903
2,1, 7, 1, 0, 6,22.00,23.00,Sunday
7,11.185
19,29.09863161194002
2,1, 7, 1, 0, 6,23.00,24.00,Sunday
7,11.18
19,29.08961615502237
2,1, 7, 1, 0, 6,24.00,25.00,Sunday
7,11.175
19,29.08053682216479
2,1, 7, 1, 0, 6,25.00,26.00,Sunday
7,11.17
19,29.071405785931606
2,1, 7, 1, 0, 6,26.00,27.00,Sunday
7,11.165000000000001
19,29.062230415003587
2,1, 7, 1, 0, 6,27.00,28.00,Sunday
7,11.16
19,29.053016019741516
2,1, 7, 1, 0, 6,28.00,29.00,Sunday
7,11.155
19,29.043767136429278
2,1, 7, 1, 0, 6,29.00,30.00,Sunday
7,11.15
19,29.034487877501803
2,1, 7, 1, 0, 6,30.00,31.00,Sunday
7,11.145
19,29.02599807350121
2,1, 7, 1, 0, 6,31.00,32.00,Sunday
7,11.14
19,29.019210151744403
2,1, 7, 1, 0, 6,32.00,33.00,Sunday
7,11.135000000000002
19,29.01488349631853
2,1, 7, 1, 0, 6,33.00,34.00,Sunday
7,11.13
19,29.01303291775914
2,1, 7, 1, 0, 6,34.00,35.00,Sunday
7,11.125
19,29.013243806633064
2,1, 7, 1, 0, 6,35.00,36.00,Sunday
7,11.120000000000001
19,29.01511550010911
2,1, 7, 1, 0, 6,36.00,37.00,Sunday
7,11.115
19,29.01838131925421
2,1, 7, 1, 0, 6,37.00,38.00,Sunday
7,11.11
19,29.022869916497548
2,1, 7, 1, 0, 6,38.00,39.00,Sunday
7,11.105
19,29.028454984448334
2,1, 7, 1, 0, 6,39.00,40.00,Sunday
7,11.100000000000001
19,29.035029163984955
2,1, 7, 1, 0, 6,40.00,41.00,Sunday
7,11.095
19,29.043544663165584
2,1, 7, 1, 0, 6,41.00,42.00,Sunday
7,11.09
19,29.053977042186123
2,1, 7, 1, 0, 6,42.00,43.00,Sunday
7,11.085
19,29.065587502313
2,1, 7, 1, 0, 6,43.00,44.00,Sunday
7,11.08
19,29.07778876536857
2,1, 7, 1, 0, 6,44.00,45.00,Sunday
7,11.075
19,29.090326129037514
2,1, 7, 1, 0, 6,45.00,46.00,Sunday
7,11.07
19,29.103136748653
2,1, 7, 1, 0, 6,46.00,47.00,Sunday
7,11.065000000000001
19,29.116220033907545
2,1, 7, 1, 0, 6,47.00,48.00,Sunday
7,11.06
19,29.129580425586312
2,1, 7, 1, 0, 6,48.00,49.00,Sunday
7,11.055
19,29.143215205192217
2,1, 7, 1, 0, 6,49.00,50.00,Sunday
7,11.05
19,29.1571174035958
2,1, 7, 1, 0, 6,50.00,51.00,Sunday
7,11.045
19,29.1712797750413
2,1, 7, 1, 0, 6,51.00,52.00,Sunday
7,11.04
19,29.185696588743355
2,1, 7, 1, 0, 6,52.00,53.00,Sunday
7,11.035
19,29.200363851779773
2,1, 7, 1, 0, 6,53.00,54.00,Sunday
7,11.030000000000001
19,29.215278980335437
2,1, 7, 1, 0, 6,54.00,55.00,Sunday
7,11.024999999999999
19,29.2304404423754
2,1, 7, 1, 0, 6,55.00,56.00,Sunday
7,11.020000000000001
19,29.245847519056948
2,1, 7, 1, 0, 6,56.00,57.00,Sunday
7,11.015
19,29.26150015243586
2,1, 7, 1, 0, 6,57.00,58.00,Sunday
7,11.01
19,29.27771066993997
2,1, 7, 1, 0, 6,58.00,59.00,Sunday
7,11.005
19,29.294830109611393
2,1, 7, 1, 0, 6,59.00,60.00,Sunday
7,11.0
19,29.312999712621668
2,1, 7, 1, 0, 6, 0.00,60.00,Sunday
8,19.762937086422827
9,19.677503351873018
10,19.883354577654902
11,19.70789988421349
12,40.73339578906171
13,19.437390699794
14,19.327446938727597
15,19.092770586053668
16,19.055788041072155
17,19.157851420927432
18,19.089128491335526
2,1, 7, 1, 0, 7, 0.00, 1.00,Sunday
7,11.053333333333333
19,29.333691423147805
2,1, 7, 1, 0, 7, 1.00, 2.00,Sunday
7,11.106666666666666
19,29.35756778107901
2,1, 7, 1, 0, 7, 2.00, 3.00,Sunday
7,11.16
19,29.384605268014948
2,1, 7, 1, 0, 7, 3.00, 4.00,Sunday
7,11.213333333333335
19,29.41449905369959
2,1, 7, 1, 0, 7, 4.00, 5.00,Sunday
7,11.266666666666666
19,29.44690956741183
2,1, 7, 1, 0, 7, 5.00, 6.00,Sunday
7,11.32
19,29.48154402127055
2,1, 7, 1, 0, 7, 6.00, 7.00,Sunday
7,11.373333333333333
19,29.518160845663733
2,1, 7, 1, 0, 7, 7.00, 8.00,Sunday
7,11.426666666666666
19,29.5565557899402
2,1, 7, 1, 0, 7, 8.00, 9.00,Sunday
7,11.48
19,29.596550944408417
2,1, 7, 1, 0, 7, 9.00,10.00,Sunday
7,11.533333333333335
19,29.637989180775527
2,1, 7, 1, 0, 7,10.00,11.00,Sunday
7,11.586666666666666
19,29.68208023204095
2,1, 7, 1, 0, 7,11.00,12.00,Sunday
7,11.64
19,29.72885220358956
2,1, 7, 1, 0, 7,12.00,13.00,Sunday
7,11.693333333333333
19,29.77720302595586
2,1, 7, 1, 0, 7,13.00,14.00,Sunday
7,11.746666666666666
19,29.826376227416215
2,1, 7, 1, 0, 7,14.00,15.00,Sunday
7,11.8
19,29.876068895313274
2,1, 7, 1, 0, 7,15.00,16.00,Sunday
7,11.853333333333333
19,29.926212521580748
2,1, 7, 1, 0, 7,16.00,17.00,Sunday
7,11.906666666666666
19,29.976806229095
2,1, 7, 1, 0, 7,17.00,18.00,Sunday
7,11.959999999999999
19,30.02785030036697
2,1, 7, 1, 0, 7,18.00,19.00,Sunday