Program Version,EnergyPlus, Version 25.1.0-1c11a3d85f, YMD=2026.04.10 14:05
1,5,Environment Title[],Latitude[deg],Longitude[deg],Time Zone[],Elevation[m]
2,8,Day of Simulation[],Month[],Day of Month[],DST Indicator[1=yes 0=no],Hour[],StartMinute[],EndMinute[],DayType
3,5,Cumulative Day of Simulation[],Month[],Day of Month[],DST Indicator[1=yes 0=no],DayType  ! When Daily Report Variables Requested
4,2,Cumulative Days of Simulation[],Month[]  ! When Monthly Report Variables Requested
5,1,Cumulative Days of Simulation[] ! When Run Period Report Variables Requested
6,1,Calendar Year of Simulation[] ! When Annual Report Variables Requested
7,1,Environment,Site Outdoor Air Drybulb Temperature [C] !TimeStep
8,1,WALL_N,Surface Inside Face Temperature [C] !Hourly
9,1,WALL_S,Surface Inside Face Temperature [C] !Hourly
10,1,WALL_E,Surface Inside Face Temperature [C] !Hourly
11,1,WALL_W,Surface Inside Face Temperature [C] !Hourly
12,1,FLOOR,Surface Inside Face Temperature [C] !Hourly
13,1,ROOF,Surface Inside Face Temperature [C] !Hourly
14,1,ROOF_GLASS,Surface Inside Face Temperature [C] !Hourly
15,1,WALL_N_GLASS,Surface Inside Face Temperature [C] !Hourly
16,1,WALL_S_GLASS,Surface Inside Face Temperature [C] !Hourly
17,1,WALL_E_GLASS,Surface Inside Face Temperature [C] !Hourly
18,1,WALL_W_GLASS,Surface Inside Face Temperature [C] !Hourly
19,1,GREENHOUSE,Zone Mean Air Temperature [C] !TimeStep
End of Data Dictionary
1,RUN PERIOD 1,  36.85,  -2.36,   1.00,  21.00
2,1, 7, 1, 0, 1, 0.00, 1.00,Sunday
7,22.716666666666665
19,30.17702627556102
2,1, 7, 1, 0, 1, 1.00, 2.00,Sunday
7,22.73333333333333
19,30.164021438062864
2,1, 7, 1, 0, 1, 2.00, 3.00,Sunday
7,22.749999999999996
19,30.149923045735846
2,1, 7, 1, 0, 1, 3.00, 4.00,Sunday
7,22.766666666666666
19,30.134635363247888
2,1, 7, 1, 0, 1, 4.00, 5.00,Sunday
7,22.783333333333335
19,30.11819418842449
2,1, 7, 1, 0, 1, 5.00, 6.00,Sunday
7,22.8
19,30.10069357527324
2,1, 7, 1, 0, 1, 6.00, 7.00,Sunday
7,22.816666666666666
19,30.082241863410015
2,1, 7, 1, 0, 1, 7.00, 8.00,Sunday
7,22.833333333333332
19,30.06294253427786
2,1, 7, 1, 0, 1, 8.00, 9.00,Sunday
7,22.849999999999998
19,30.042889140430756
2,1, 7, 1, 0, 1, 9.00,10.00,Sunday
7,22.866666666666667
19,30.0221650664664
2,1, 7, 1, 0, 1,10.00,11.00,Sunday
7,22.883333333333333
19,30.000844329188695
2,1, 7, 1, 0, 1,11.00,12.00,Sunday
7,22.9
19,29.97899252005978
2,1, 7, 1, 0, 1,12.00,13.00,Sunday
7,22.916666666666664
19,29.956667661174674
2,1, 7, 1, 0, 1,13.00,14.00,Sunday
7,22.933333333333334
19,29.933920973725336
2,1, 7, 1, 0, 1,14.00,15.00,Sunday
7,22.95
19,29.91079768857789
2,1, 7, 1, 0, 1,15.00,16.00,Sunday
7,22.96666666666667
19,29.887337417718765
2,1, 7, 1, 0, 1,16.00,17.00,Sunday
7,22.983333333333334
19,29.86357508269536
2,1, 7, 1, 0, 1,17.00,18.00,Sunday
7,23.0
19,29.839541545839204
2,1, 7, 1, 0, 1,18.00,19.00,Sunday
7,23.016666666666666
19,29.815264023477365
2,1, 7, 1, 0, 1,19.00,20.00,Sunday
7,23.033333333333335
19,29.790766475341382
2,1, 7, 1, 0, 1,20.00,21.00,Sunday
7,23.05
19,29.76606978321867
2,1, 7, 1, 0, 1,21.00,22.00,Sunday
7,23.066666666666663
19,29.741192482273416
2,1, 7, 1, 0, 1,22.00,23.00,Sunday
7,23.083333333333336
19,29.716150792948874
2,1, 7, 1, 0, 1,23.00,24.00,Sunday
7,23.1
19,29.69095895636641
2,1, 7, 1, 0, 1,24.00,25.00,Sunday
7,23.116666666666667
19,29.66562966701103
2,1, 7, 1, 0, 1,25.00,26.00,Sunday
7,23.133333333333333
19,29.640174072619583
2,1, 7, 1, 0, 1,26.00,27.00,Sunday
7,23.15
19,29.614601828480097
2,1, 7, 1, 0, 1,27.00,28.00,Sunday
7,23.166666666666664
19,29.58892136908313
2,1, 7, 1, 0, 1,28.00,29.00,Sunday
7,23.18333333333333
19,29.563140253369525
2,1, 7, 1, 0, 1,29.00,30.00,Sunday
7,23.2
19,29.537422044361413
2,1, 7, 1, 0, 1,30.00,31.00,Sunday
7,23.21666666666667
19,29.511905049817745
2,1, 7, 1, 0, 1,31.00,32.00,Sunday
7,23.233333333333334
19,29.486627753477684
2,1, 7, 1, 0, 1,32.00,33.00,Sunday
7,23.25
19,29.461571542679504
2,1, 7, 1, 0, 1,33.00,34.00,Sunday
7,23.266666666666666
19,29.436701724572224
2,1, 7, 1, 0, 1,34.00,35.00,Sunday
7,23.28333333333333
19,29.4115570932255
2,1, 7, 1, 0, 1,35.00,36.00,Sunday
7,23.299999999999997
19,29.386491229555567
2,1, 7, 1, 0, 1,36.00,37.00,Sunday
7,23.316666666666666
19,29.610880767978763
2,1, 7, 1, 0, 1,37.00,38.00,Sunday
7,23.333333333333332
19,30.00100087965456
2,1, 7, 1, 0, 1,38.00,39.00,Sunday
7,23.349999999999998
19,30.43181307324285
2,1, 7, 1, 0, 1,39.00,40.00,Sunday
7,23.366666666666667
19,30.83811532266696
2,1, 7, 1, 0, 1,40.00,41.00,Sunday
7,23.383333333333333
19,31.20276638011646
2,1, 7, 1, 0, 1,41.00,42.00,Sunday
7,23.4
19,31.528410637415593
2,1, 7, 1, 0, 1,42.00,43.00,Sunday
7,23.416666666666664
19,31.82130238086727
2,1, 7, 1, 0, 1,43.00,44.00,Sunday
7,23.433333333333334
19,32.086213938446924
2,1, 7, 1, 0, 1,44.00,45.00,Sunday
7,23.45
19,32.32621221108641
2,1, 7, 1, 0, 1,45.00,46.00,Sunday
7,23.46666666666667
19,32.54347385951449
2,1, 7, 1, 0, 1,46.00,47.00,Sunday
7,23.48333333333333
19,32.739849154117636
2,1, 7, 1, 0, 1,47.00,48.00,Sunday
7,23.5
19,32.91706985819628
2,1, 7, 1, 0, 1,48.00,49.00,Sunday
7,23.516666666666666
19,33.07677841456787
2,1, 7, 1, 0, 1,49.00,50.00,Sunday
7,23.53333333333333
19,33.22050863852709
2,1, 7, 1, 0, 1,50.00,51.00,Sunday
7,23.55
19,33.34967535962032
2,1, 7, 1, 0, 1,51.00,52.00,Sunday
7,23.566666666666666
19,33.46557374167948
2,1, 7, 1, 0, 1,52.00,53.00,Sunday
7,23.583333333333332
19,33.5693860943959
2,1, 7, 1, 0, 1,53.00,54.00,Sunday
7,23.599999999999998
19,33.662017548063275
2,1, 7, 1, 0, 1,54.00,55.00,Sunday
7,23.616666666666667
19,33.74453968281611
2,1, 7, 1, 0, 1,55.00,56.00,Sunday
7,23.633333333333333
19,33.817948841337945
2,1, 7, 1, 0, 1,56.00,57.00,Sunday
7,23.65
19,33.8831071729445
2,1, 7, 1, 0, 1,57.00,58.00,Sunday
7,23.666666666666668
19,33.94076476298867
2,1, 7, 1, 0, 1,58.00,59.00,Sunday
7,23.683333333333334
19,33.99159090054658
2,1, 7, 1, 0, 1,59.00,60.00,Sunday
7,23.7
19,34.036193401745685
2,1, 7, 1, 0, 1, 0.00,60.00,Sunday
8,20.409098663942363
9,20.412521081783456
10,20.407795312310178
11,20.418318213333297
12,43.34720255336471
13,19.983620803105527
14,20.253074875877754
15,20.601231312043776
16,20.600753473146643
17,20.5961675956946
18,20.61100651089619
2,1, 7, 1, 0, 2, 0.00, 1.00,Sunday
7,23.703333333333333
19,34.075155450085745
2,1, 7, 1, 0, 2, 1.00, 2.00,Sunday
7,23.706666666666667
19,34.10901262376671
2,1, 7, 1, 0, 2, 2.00, 3.00,Sunday
7,23.709999999999997
19,34.1382377493046
2,1, 7, 1, 0, 2, 3.00, 4.00,Sunday
7,23.713333333333335
19,34.16324980552688
2,1, 7, 1, 0, 2, 4.00, 5.00,Sunday
7,23.716666666666665
19,34.18442555413531
2,1, 7, 1, 0, 2, 5.00, 6.00,Sunday
7,23.72
19,34.20210719703521
2,1, 7, 1, 0, 2, 6.00, 7.00,Sunday
7,23.723333333333333
19,34.21660667797134
2,1, 7, 1, 0, 2, 7.00, 8.00,Sunday
7,23.726666666666667
19,34.22820842818494
2,1, 7, 1, 0, 2, 8.00, 9.00,Sunday
7,23.73
19,34.23717162207178
2,1, 7, 1, 0, 2, 9.00,10.00,Sunday
7,23.733333333333334
19,34.24373229756717
2,1, 7, 1, 0, 2,10.00,11.00,Sunday
7,23.736666666666665
19,34.248105376241995
2,1, 7, 1, 0, 2,11.00,12.00,Sunday
7,23.740000000000002
19,34.25048654737443
2,1, 7, 1, 0, 2,12.00,13.00,Sunday
7,23.743333333333332
19,34.2510539950706
2,1, 7, 1, 0, 2,13.00,14.00,Sunday
7,23.746666666666663
19,34.24996996976542
2,1, 7, 1, 0, 2,14.00,15.00,Sunday
7,23.75
19,34.247382216192484
2,1, 7, 1, 0, 2,15.00,16.00,Sunday
7,23.753333333333337
19,34.243425271913665
2,1, 7, 1, 0, 2,16.00,17.00,Sunday
7,23.756666666666668
19,34.23822164913607
2,1, 7, 1, 0, 2,17.00,18.00,Sunday
7,23.759999999999998
19,34.23188291074922
2,1, 7, 1, 0, 2,18.00,19.00,Sunday
7,23.763333333333332
19,34.22451065013582
2,1, 7, 1, 0, 2,19.00,20.00,Sunday
7,23.766666666666666
19,34.21619738332422
2,1, 7, 1, 0, 2,20.00,21.00,Sunday
7,23.769999999999996
19,34.2070273612798
2,1, 7, 1, 0, 2,21.00,22.00,Sunday
7,23.77333333333333
19,34.19707730945808
2,1, 7, 1, 0, 2,22.00,23.00,Sunday
7,23.776666666666667
19,34.186417101122814
2,1, 7, 1, 0, 2,23.00,24.00,Sunday
7,23.78
19,34.17511037035755
2,1, 7, 1, 0, 2,24.00,25.00,Sunday
7,23.78333333333333
19,34.16321507017226
2,1, 7, 1, 0, 2,25.00,26.00,Sunday
7,23.786666666666665
19,34.15078398062277
2,1, 7, 1, 0, 2,26.00,27.00,Sunday
7,23.79
19,34.13786517142144
2,1, 7, 1, 0, 2,27.00,28.00,Sunday
7,23.79333333333333
19,34.12450242311628
2,1, 7, 1, 0, 2,28.00,29.00,Sunday
7,23.796666666666663
19,34.110735610551814
2,1, 7, 1, 0, 2,29.00,30.00,Sunday
7,23.799999999999997
19,34.0966010519918
2,1, 7, 1, 0, 2,30.00,31.00,Sunday
7,23.803333333333335
19,34.08213182698187
2,1, 7, 1, 0, 2,31.00,32.00,Sunday
7,23.806666666666665
19,34.06735806575378
2,1, 7, 1, 0, 2,32.00,33.00,Sunday
7,23.81
19,34.05230721272217
2,1, 7, 1, 0, 2,33.00,34.00,Sunday
7,23.813333333333333
19,34.03700426639624
2,1, 7, 1, 0, 2,34.00,35.00,Sunday
7,23.816666666666663
19,34.02147199782032
2,1, 7, 1, 0, 2,35.00,36.00,Sunday
7,23.82
19,34.005731149467444
2,1, 7, 1, 0, 2,36.00,37.00,Sunday
7,23.82333333333333
19,33.98980061633808
2,1, 7, 1, 0, 2,37.00,38.00,Sunday
7,23.826666666666668
19,33.973697610858764
2,1, 7, 1, 0, 2,38.00,39.00,Sunday
7,23.83
19,33.957437813031916
2,1, 7, 1, 0, 2,39.00,40.00,Sunday
7,23.833333333333332
19,33.941035507158524
2,1, 7, 1, 0, 2,40.00,41.00,Sunday
7,23.836666666666666
19,33.924503706336424
2,1, 7, 1, 0, 2,41.00,42.00,Sunday
7,23.839999999999996
19,33.907854265829386
2,1, 7, 1, 0, 2,42.00,43.00,Sunday
7,23.843333333333334
19,33.891097986303464
2,1, 7, 1, 0, 2,43.00,44.00,Sunday
7,23.846666666666664
19,33.874244707838
2,1, 7, 1, 0, 2,44.00,45.00,Sunday
7,23.849999999999998
19,33.857303395537315
2,1, 7, 1, 0, 2,45.00,46.00,Sunday
7,23.85333333333333
19,33.84028221749535
2,1, 7, 1, 0, 2,46.00,47.00,Sunday
7,23.856666666666662
19,33.82318861579718
2,1, 7, 1, 0, 2,47.00,48.00,Sunday
7,23.86
19,33.80602937118065
2,1, 7, 1, 0, 2,48.00,49.00,Sunday
7,23.86333333333333
19,33.78881066192523
2,1, 7, 1, 0, 2,49.00,50.00,Sunday
7,23.866666666666667
19,33.771538117485136
2,1, 7, 1, 0, 2,50.00,51.00,Sunday
7,23.869999999999997
19,33.75421686733614
2,1, 7, 1, 0, 2,51.00,52.00,Sunday
7,23.87333333333333
19,33.7371510107675
2,1, 7, 1, 0, 2,52.00,53.00,Sunday
7,23.876666666666665
19,33.720687787295475
2,1, 7, 1, 0, 2,53.00,54.00,Sunday
7,23.879999999999995
19,33.704990072993965
2,1, 7, 1, 0, 2,54.00,55.00,Sunday
7,23.883333333333333
19,33.69006355419421
2,1, 7, 1, 0, 2,55.00,56.00,Sunday
7,23.886666666666663
19,33.6758470681974
2,1, 7, 1, 0, 2,56.00,57.00,Sunday
7,23.89
19,33.66226884790689
2,1, 7, 1, 0, 2,57.00,58.00,Sunday
7,23.89333333333333
19,33.649265700132645
2,1, 7, 1, 0, 2,58.00,59.00,Sunday
7,23.896666666666665
19,33.63678444238754
2,1, 7, 1, 0, 2,59.00,60.00,Sunday
7,23.9
19,33.6247789689121
2,1, 7, 1, 0, 2, 0.00,60.00,Sunday
8,26.728041505208946
9,26.757343198524083
10,26.733211908956083
11,26.761970135867465
12,42.96329740091653
13,25.351270512176708
14,25.36605226431438
15,26.401991638510005
16,26.42648377992115
17,26.407369731716887
18,26.431978382975892
2,1, 7, 1, 0, 3, 0.00, 1.00,Sunday
7,23.9
19,33.61314311740222
2,1, 7, 1, 0, 3, 1.00, 2.00,Sunday
7,23.9
19,33.601772699126094
2,1, 7, 1, 0, 3, 2.00, 3.00,Sunday
7,23.9
19,33.590606397291545
2,1, 7, 1, 0, 3, 3.00, 4.00,Sunday
7,23.9
19,33.57961518443803
2,1, 7, 1, 0, 3, 4.00, 5.00,Sunday
7,23.9
19,33.5687840748515
2,1, 7, 1, 0, 3, 5.00, 6.00,Sunday
7,23.9
19,33.55810180654562
2,1, 7, 1, 0, 3, 6.00, 7.00,Sunday
7,23.9
19,33.54755752489308
2,1, 7, 1, 0, 3, 7.00, 8.00,Sunday
7,23.9
19,33.53714053149912
2,1, 7, 1, 0, 3, 8.00, 9.00,Sunday
7,23.9
19,33.5268406885264
2,1, 7, 1, 0, 3, 9.00,10.00,Sunday
7,23.900000000000002
19,33.5166486703067
2,1, 7, 1, 0, 3,10.00,11.00,Sunday
7,23.9
19,33.506555999734836
2,1, 7, 1, 0, 3,11.00,12.00,Sunday
7,23.900000000000002
19,33.49655498186544
2,1, 7, 1, 0, 3,12.00,13.00,Sunday
7,23.9
19,33.486638617629296
2,1, 7, 1, 0, 3,13.00,14.00,Sunday
7,23.9
19,33.47680052852222
2,1, 7, 1, 0, 3,14.00,15.00,Sunday
7,23.9
19,33.467034895546085
2,1, 7, 1, 0, 3,15.00,16.00,Sunday
7,23.9
19,33.45733640809672
2,1, 7, 1, 0, 3,16.00,17.00,Sunday
7,23.9
19,33.44770021901986
2,1, 7, 1, 0, 3,17.00,18.00,Sunday
7,23.899999999999995
19,33.43812190393242
2,1, 7, 1, 0, 3,18.00,19.00,Sunday
7,23.9
19,33.42859742406777
2,1, 7, 1, 0, 3,19.00,20.00,Sunday
7,23.9
19,33.41912309233274
2,1, 7, 1, 0, 3,20.00,21.00,Sunday
7,23.9
19,33.409695542345446
2,1, 7, 1, 0, 3,21.00,22.00,Sunday
7,23.9
19,33.400311700215966
2,1, 7, 1, 0, 3,22.00,23.00,Sunday
7,23.9
19,33.39096875882789
2,1, 7, 1, 0, 3,23.00,24.00,Sunday
7,23.9
19,33.381664154392396
2,1, 7, 1, 0, 3,24.00,25.00,Sunday
7,23.9
19,33.37239554506786
2,1, 7, 1, 0, 3,25.00,26.00,Sunday
7,23.9
19,33.36316079145929
2,1, 7, 1, 0, 3,26.00,27.00,Sunday
7,23.9
19,33.35395793883095
2,1, 7, 1, 0, 3,27.00,28.00,Sunday
7,23.9
19,33.34478520088035
2,1, 7, 1, 0, 3,28.00,29.00,Sunday
7,23.9
19,33.335640944936685
2,1, 7, 1, 0, 3,29.00,30.00,Sunday
7,23.9
19,33.32652367845831
2,1, 7, 1, 0, 3,30.00,31.00,Sunday
7,23.9
19,33.317432036715715
2,1, 7, 1, 0, 3,31.00,32.00,Sunday
7,23.9
19,33.30836477155564
2,1, 7, 1, 0, 3,32.00,33.00,Sunday
7,23.9
19,33.299320741151895
2,1, 7, 1, 0, 3,33.00,34.00,Sunday
7,23.9
19,33.29029890065576
2,1, 7, 1, 0, 3,34.00,35.00,Sunday
7,23.9
19,33.28129829366768
2,1, 7, 1, 0, 3,35.00,36.00,Sunday
7,23.9
19,33.27231804445801
2,1, 7, 1, 0, 3,36.00,37.00,Sunday
7,23.9
19,33.2633573508712
2,1, 7, 1, 0, 3,37.00,38.00,Sunday
7,23.9
19,33.25441547785358
2,1, 7, 1, 0, 3,38.00,39.00,Sunday
7,23.9
19,33.24549175154983
2,1, 7, 1, 0, 3,39.00,40.00,Sunday
7,23.9
19,33.23658555391831
2,1, 7, 1, 0, 3,40.00,41.00,Sunday
7,23.9
19,33.22769631782013
2,1, 7, 1, 0, 3,41.00,42.00,Sunday
7,23.9
19,33.21882352254002
2,1, 7, 1, 0, 3,42.00,43.00,Sunday
7,23.9
19,33.20996668970086
2,1, 7, 1, 0, 3,43.00,44.00,Sunday
7,23.9
19,33.20112537953805
2,1, 7, 1, 0, 3,44.00,45.00,Sunday
7,23.9
19,33.19229918750169
2,1, 7, 1, 0, 3,45.00,46.00,Sunday
7,23.9
19,33.183487741157705
2,1, 7, 1, 0, 3,46.00,47.00,Sunday
7,23.9
19,33.17469069736187
2,1, 7, 1, 0, 3,47.00,48.00,Sunday
7,23.9
19,33.165907739682766
2,1, 7, 1, 0, 3,48.00,49.00,Sunday
7,23.9
19,33.15713857605162
2,1, 7, 1, 0, 3,49.00,50.00,Sunday
7,23.9
19,33.14838293661939
2,1, 7, 1, 0, 3,50.00,51.00,Sunday
7,23.9
19,33.13964057180259
2,1, 7, 1, 0, 3,51.00,52.00,Sunday
7,23.9
19,33.13091125050139
2,1, 7, 1, 0, 3,52.00,53.00,Sunday
7,23.9
19,33.12219475847486
2,1, 7, 1, 0, 3,53.00,54.00,Sunday
7,23.9
19,33.1134908968596
2,1, 7, 1, 0, 3,54.00,55.00,Sunday
7,23.9
19,33.10479948081914
2,1, 7, 1, 0, 3,55.00,56.00,Sunday
7,23.9
19,33.096120338312296
2,1, 7, 1, 0, 3,56.00,57.00,Sunday
7,23.9
19,33.08745330897057
2,1, 7, 1, 0, 3,57.00,58.00,Sunday
7,23.9
19,33.0787982430744
2,1, 7, 1, 0, 3,58.00,59.00,Sunday
7,23.9
19,33.07015500062007
2,1, 7, 1, 0, 3,59.00,60.00,Sunday
7,23.9
19,33.06152345046899
2,1, 7, 1, 0, 3, 0.00,60.00,Sunday
8,26.34168834362713
9,26.3377102055626
10,26.34650652443777
11,26.341944654834965
12,42.00029682715309
13,24.8866191463408
14,24.8982619857292
15,26.04169498107974
16,26.03631762216745
17,26.046698366375473
18,26.04138996776847
2,1, 7, 1, 0, 4, 0.00, 1.00,Sunday
7,23.904999999999998
19,33.052959926244476
2,1, 7, 1, 0, 4, 1.00, 2.00,Sunday
7,23.909999999999997
19,33.04452521665743
2,1, 7, 1, 0, 4, 2.00, 3.00,Sunday
7,23.915
19,33.036246164426615
2,1, 7, 1, 0, 4, 3.00, 4.00,Sunday
7,23.919999999999998
19,33.028122527566296
2,1, 7, 1, 0, 4, 4.00, 5.00,Sunday
7,23.924999999999997
19,33.0201427317175
2,1, 7, 1, 0, 4, 5.00, 6.00,Sunday
7,23.93
19,33.01229342531315
2,1, 7, 1, 0, 4, 6.00, 7.00,Sunday
7,23.935
19,33.00456273297878
2,1, 7, 1, 0, 4, 7.00, 8.00,Sunday
7,23.939999999999998
19,32.99694051985662
2,1, 7, 1, 0, 4, 8.00, 9.00,Sunday
7,23.944999999999997
19,32.989417914234394
2,1, 7, 1, 0, 4, 9.00,10.00,Sunday
7,23.950000000000003
19,32.9819740361462
2,1, 7, 1, 0, 4,10.00,11.00,Sunday
7,23.955
19,32.97461683665021
2,1, 7, 1, 0, 4,11.00,12.00,Sunday
7,23.96
19,32.96734323518072
2,1, 7, 1, 0, 4,12.00,13.00,Sunday
7,23.964999999999996
19,32.96014552408439
2,1, 7, 1, 0, 4,13.00,14.00,Sunday
7,23.97
19,32.95299672730319
2,1, 7, 1, 0, 4,14.00,15.00,Sunday
7,23.974999999999998
19,32.94586940737276
2,1, 7, 1, 0, 4,15.00,16.00,Sunday
7,23.98
19,32.93874890817321
2,1, 7, 1, 0, 4,16.00,17.00,Sunday
7,23.985
19,32.931630834253234
2,1, 7, 1, 0, 4,17.00,18.00,Sunday
7,23.989999999999995
19,32.92451529492899
2,1, 7, 1, 0, 4,18.00,19.00,Sunday
7,23.995
19,32.9174033890183
2,1, 7, 1, 0, 4,19.00,20.00,Sunday
7,24.0
19,32.91029598818794
2,1, 7, 1, 0, 4,20.00,21.00,Sunday
7,24.005
19,32.90319361650541
2,1, 7, 1, 0, 4,21.00,22.00,Sunday
7,24.009999999999998
19,32.8960966042465
2,1, 7, 1, 0, 4,22.00,23.00,Sunday
7,24.015
19,32.889005210045354
2,1, 7, 1, 0, 4,23.00,24.00,Sunday
7,24.019999999999996
19,32.88191967058417
2,1, 7, 1, 0, 4,24.00,25.00,Sunday
7,24.025
19,32.87484020989938
2,1, 7, 1, 0, 4,25.00,26.00,Sunday
7,24.03
19,32.86776703667729
2,1, 7, 1, 0, 4,26.00,27.00,Sunday
7,24.035
19,32.86070034159076
2,1, 7, 1, 0, 4,27.00,28.00,Sunday
7,24.04
19,32.853640296952904
2,1, 7, 1, 0, 4,28.00,29.00,Sunday
7,24.044999999999998
19,32.84658705781576
2,1, 7, 1, 0, 4,29.00,30.00,Sunday
7,24.049999999999997
19,32.83954076350391
2,1, 7, 1, 0, 4,30.00,31.00,Sunday
7,24.055
19,32.83250153909473
2,1, 7, 1, 0, 4,31.00,32.00,Sunday
7,24.06
19,32.82546949672587
2,1, 7, 1, 0, 4,32.00,33.00,Sunday
7,24.064999999999998
19,32.81844473674775
2,1, 7, 1, 0, 4,33.00,34.00,Sunday
7,24.07
19,32.81142734875952
2,1, 7, 1, 0, 4,34.00,35.00,Sunday
7,24.075
19,32.804417412552574
2,1, 7, 1, 0, 4,35.00,36.00,Sunday
7,24.08
19,32.7974149989739
2,1, 7, 1, 0, 4,36.00,37.00,Sunday
7,24.085
19,32.790420170715386
2,1, 7, 1, 0, 4,37.00,38.00,Sunday
7,24.09
19,32.78343298303453
2,1, 7, 1, 0, 4,38.00,39.00,Sunday
7,24.095
19,32.77645348441194
2,1, 7, 1, 0, 4,39.00,40.00,Sunday
7,24.1
19,32.76948171715056
2,1, 7, 1, 0, 4,40.00,41.00,Sunday
7,24.104999999999997
19,32.76251771792159
2,1, 7, 1, 0, 4,41.00,42.00,Sunday
7,24.11
19,32.7555615182621
2,1, 7, 1, 0, 4,42.00,43.00,Sunday
7,24.115000000000002
19,32.74861314502818
2,1, 7, 1, 0, 4,43.00,44.00,Sunday
7,24.12
19,32.74167262080789
2,1, 7, 1, 0, 4,44.00,45.00,Sunday
7,24.125
19,32.73473996429745
2,1, 7, 1, 0, 4,45.00,46.00,Sunday
7,24.13
19,32.72781519064399
2,1, 7, 1, 0, 4,46.00,47.00,Sunday
7,24.134999999999998
19,32.720898311757544
2,1, 7, 1, 0, 4,47.00,48.00,Sunday
7,24.139999999999997
19,32.71398933659513
2,1, 7, 1, 0, 4,48.00,49.00,Sunday
7,24.145
19,32.707088271419316
2,1, 7, 1, 0, 4,49.00,50.00,Sunday
7,24.15
19,32.700195120033676
2,1, 7, 1, 0, 4,50.00,51.00,Sunday
7,24.155
19,32.693309883997046
2,1, 7, 1, 0, 4,51.00,52.00,Sunday
7,24.159999999999997
19,32.68643256281845
2,1, 7, 1, 0, 4,52.00,53.00,Sunday
7,24.165
19,32.67956315413434
2,1, 7, 1, 0, 4,53.00,54.00,Sunday
7,24.17
19,32.67270165386945
2,1, 7, 1, 0, 4,54.00,55.00,Sunday
7,24.174999999999997
19,32.66584805638323
2,1, 7, 1, 0, 4,55.00,56.00,Sunday
7,24.18
19,32.659002354602734
2,1, 7, 1, 0, 4,56.00,57.00,Sunday
7,24.185
19,32.65216454014295
2,1, 7, 1, 0, 4,57.00,58.00,Sunday
7,24.19
19,32.64533460341598
2,1, 7, 1, 0, 4,58.00,59.00,Sunday
7,24.194999999999997
19,32.638512533729894
2,1, 7, 1, 0, 4,59.00,60.00,Sunday
7,24.2
19,32.63169831937797
2,1, 7, 1, 0, 4, 0.00,60.00,Sunday
8,26.05143178157204
9,26.080926222358624
10,26.090993176795777
11,26.0505283698328
12,41.34264311516258
13,24.5948749511245
14,24.60687090690399
15,25.789211792548038
16,25.815752054116185
17,25.825105026784875
18,25.789712826736668
2,1, 7, 1, 0, 5, 0.00, 1.00,Sunday
7,24.21333333333333
19,32.62500015387092
2,1, 7, 1, 0, 5, 1.00, 2.00,Sunday
7,24.226666666666667
19,32.61853662824987
2,1, 7, 1, 0, 5, 2.00, 3.00,Sunday
7,24.24
19,32.61236177472651
2,1, 7, 1, 0, 5, 3.00, 4.00,Sunday
7,24.253333333333334
19,32.60647640766649
2,1, 7, 1, 0, 5, 4.00, 5.00,Sunday
7,24.266666666666662
19,32.60085825280176
2,1, 7, 1, 0, 5, 5.00, 6.00,Sunday
7,24.28
19,32.59548092367369
2,1, 7, 1, 0, 5, 6.00, 7.00,Sunday
7,24.293333333333333
19,32.59032069609927
2,1, 7, 1, 0, 5, 7.00, 8.00,Sunday
7,24.306666666666665
19,32.58535725441935
2,1, 7, 1, 0, 5, 8.00, 9.00,Sunday
7,24.32
19,32.58057282679127
2,1, 7, 1, 0, 5, 9.00,10.00,Sunday
7,24.333333333333336
19,32.575951424552215
2,1, 7, 1, 0, 5,10.00,11.00,Sunday
7,24.346666666666664
19,32.57147845595161
2,1, 7, 1, 0, 5,11.00,12.00,Sunday
7,24.36
19,32.567140562931165
2,1, 7, 1, 0, 5,12.00,13.00,Sunday
7,24.373333333333335
19,32.562925532911294
2,1, 7, 1, 0, 5,13.00,14.00,Sunday
7,24.386666666666663
19,32.55882221981657
2,1, 7, 1, 0, 5,14.00,15.00,Sunday
7,24.4
19,32.55482046057922
2,1, 7, 1, 0, 5,15.00,16.00,Sunday
7,24.413333333333334
19,32.55091099084384
2,1, 7, 1, 0, 5,16.00,17.00,Sunday
7,24.426666666666666
19,32.54708536473624
2,1, 7, 1, 0, 5,17.00,18.00,Sunday
7,24.439999999999998
19,32.5433358808501
2,1, 7, 1, 0, 5,18.00,19.00,Sunday
7,24.453333333333333
19,32.53965551457967
2,1, 7, 1, 0, 5,19.00,20.00,Sunday
7,24.46666666666667
19,32.53603785607053
2,1, 7, 1, 0, 5,20.00,21.00,Sunday
7,24.48
19,32.53247705274674
2,1, 7, 1, 0, 5,21.00,22.00,Sunday
7,24.493333333333332
19,32.5289677557456
2,1, 7, 1, 0, 5,22.00,23.00,Sunday
7,24.506666666666668
19,32.525505043351316
2,1, 7, 1, 0, 5,23.00,24.00,Sunday
7,24.52
19,32.52208443992515
2,1, 7, 1, 0, 5,24.00,25.00,Sunday
7,24.53333333333333
19,32.51870197148684
2,1, 7, 1, 0, 5,25.00,26.00,Sunday
7,24.546666666666667
19,32.51535411603814
2,1, 7, 1, 0, 5,26.00,27.00,Sunday
7,24.560000000000002
19,32.512037710701215
2,1, 7, 1, 0, 5,27.00,28.00,Sunday
7,24.57333333333333
19,32.50874988246775
2,1, 7, 1, 0, 5,28.00,29.00,Sunday
7,24.586666666666666
19,32.50548800832356
2,1, 7, 1, 0, 5,29.00,30.00,Sunday
7,24.6
19,32.50224969144919
2,1, 7, 1, 0, 5,30.00,31.00,Sunday
7,24.613333333333333
19,32.49903274311313
2,1, 7, 1, 0, 5,31.00,32.00,Sunday
7,24.626666666666665
19,32.49583516598914
2,1, 7, 1, 0, 5,32.00,33.00,Sunday
7,24.64
19,32.49265513808814
2,1, 7, 1, 0, 5,33.00,34.00,Sunday
7,24.653333333333332
19,32.489490997555464
2,1, 7, 1, 0, 5,34.00,35.00,Sunday
7,24.666666666666664
19,32.486341228597986
2,1, 7, 1, 0, 5,35.00,36.00,Sunday
7,24.68
19,32.48322329278467
2,1, 7, 1, 0, 5,36.00,37.00,Sunday
7,24.693333333333335
19,32.48015659509158
2,1, 7, 1, 0, 5,37.00,38.00,Sunday
7,24.706666666666663
19,32.477149381755844
2,1, 7, 1, 0, 5,38.00,39.00,Sunday
7,24.72
19,32.47420075348859
2,1, 7, 1, 0, 5,39.00,40.00,Sunday
7,24.733333333333334
19,32.4713059376416
2,1, 7, 1, 0, 5,40.00,41.00,Sunday
7,24.746666666666666
19,32.468459576577
2,1, 7, 1, 0, 5,41.00,42.00,Sunday
7,24.76
19,32.46565687735827
2,1, 7, 1, 0, 5,42.00,43.00,Sunday
7,24.773333333333333
19,32.4628937165189
2,1, 7, 1, 0, 5,43.00,44.00,Sunday
7,24.786666666666665
19,32.4601664730329
2,1, 7, 1, 0, 5,44.00,45.00,Sunday
7,24.8
19,32.45747188581715
2,1, 7, 1, 0, 5,45.00,46.00,Sunday
7,24.813333333333333
19,32.45480697995568
2,1, 7, 1, 0, 5,46.00,47.00,Sunday
7,24.826666666666664
19,32.45216903351901
2,1, 7, 1, 0, 5,47.00,48.00,Sunday
7,24.84
19,32.449555558376986
2,1, 7, 1, 0, 5,48.00,49.00,Sunday
7,24.853333333333335
19,32.44696428321694
2,1, 7, 1, 0, 5,49.00,50.00,Sunday
7,24.866666666666667
19,32.44439313622126
2,1, 7, 1, 0, 5,50.00,51.00,Sunday
7,24.88
19,32.441840227964924
2,1, 7, 1, 0, 5,51.00,52.00,Sunday
7,24.893333333333334
19,32.43930383531845
2,1, 7, 1, 0, 5,52.00,53.00,Sunday
7,24.906666666666666
19,32.43678238669059
2,1, 7, 1, 0, 5,53.00,54.00,Sunday
7,24.919999999999998
19,32.43427444861487
2,1, 7, 1, 0, 5,54.00,55.00,Sunday
7,24.93333333333333
19,32.43177871355959
2,1, 7, 1, 0, 5,55.00,56.00,Sunday
7,24.946666666666665
19,32.42929398883088
2,1, 7, 1, 0, 5,56.00,57.00,Sunday
7,24.96
19,32.42681918645798
2,1, 7, 1, 0, 5,57.00,58.00,Sunday
7,24.973333333333333
19,32.42435331396912
2,1, 7, 1, 0, 5,58.00,59.00,Sunday
7,24.986666666666668
19,32.421895465980064
2,1, 7, 1, 0, 5,59.00,60.00,Sunday
7,25.0
19,32.419444816524354
2,1, 7, 1, 0, 5, 0.00,60.00,Sunday
8,26.142093168189355
9,26.184674783459773
10,26.188497823001605
11,26.146292499211324
12,40.71044018497337
13,24.612286065685957
14,24.618141397663923
15,25.91828879093071
16,25.95371029895264
17,25.95814600841927
18,25.922562307181238
2,1, 7, 1, 0, 6, 0.00, 1.00,Sunday
7,25.01833333333333
19,32.416964477773156
2,1, 7, 1, 0, 6, 1.00, 2.00,Sunday
7,25.03666666666667
19,32.41441545449873
2,1, 7, 1, 0, 6, 2.00, 3.00,Sunday
7,25.055
19,32.41178173090674
2,1, 7, 1, 0, 6, 3.00, 4.00,Sunday
7,25.07333333333333
19,32.40906553505429
2,1, 7, 1, 0, 6, 4.00, 5.00,Sunday
7,25.091666666666665
19,32.4062766841331
2,1, 7, 1, 0, 6, 5.00, 6.00,Sunday
7,25.11
19,32.403426081242664
2,1, 7, 1, 0, 6, 6.00, 7.00,Sunday
7,25.128333333333334
19,32.4005234765414
2,1, 7, 1, 0, 6, 7.00, 8.00,Sunday
7,25.14666666666667
19,32.39757727543772
2,1, 7, 1, 0, 6, 8.00, 9.00,Sunday
7,25.165
19,32.39459486818877
2,1, 7, 1, 0, 6, 9.00,10.00,Sunday
7,25.183333333333337
19,32.3915829065003
2,1, 7, 1, 0, 6,10.00,11.00,Sunday
7,25.201666666666668
19,32.38854744571145
2,1, 7, 1, 0, 6,11.00,12.00,Sunday
7,25.22
19,32.385494009257954
2,1, 7, 1, 0, 6,12.00,13.00,Sunday
7,25.238333333333333
19,32.38242762724075
2,1, 7, 1, 0, 6,13.00,14.00,Sunday
7,25.256666666666664
19,32.379352871511195
2,1, 7, 1, 0, 6,14.00,15.00,Sunday
7,25.275
19,32.376273891760306
2,1, 7, 1, 0, 6,15.00,16.00,Sunday
7,25.293333333333337
19,32.37319445125285
2,1, 7, 1, 0, 6,16.00,17.00,Sunday
7,25.311666666666667
19,32.37011796055363
2,1, 7, 1, 0, 6,17.00,18.00,Sunday
7,25.33
19,32.367047508544744
2,1, 7, 1, 0, 6,18.00,19.00,Sunday
7,25.348333333333333
19,32.36398589070684
2,1, 7, 1, 0, 6,19.00,20.00,Sunday
7,25.366666666666667
19,32.36093563489038
2,1, 7, 1, 0, 6,20.00,21.00,Sunday
7,25.384999999999998
19,32.35789902482957
2,1, 7, 1, 0, 6,21.00,22.00,Sunday
7,25.403333333333332
19,32.354878121616345
2,1, 7, 1, 0, 6,22.00,23.00,Sunday
7,25.421666666666667
19,32.3518747833157
2,1, 7, 1, 0, 6,23.00,24.00,Sunday
7,25.44
19,32.34889068288059
2,1, 7, 1, 0, 6,24.00,25.00,Sunday
7,25.458333333333336
19,32.345927324510875
2,1, 7, 1, 0, 6,25.00,26.00,Sunday
7,25.476666666666667
19,32.34298605858896
2,1, 7, 1, 0, 6,26.00,27.00,Sunday
7,25.495000000000005
19,32.340068095314415
2,1, 7, 1, 0, 6,27.00,28.00,Sunday
7,25.513333333333335
19,32.33717451715008
2,1, 7, 1, 0, 6,28.00,29.00,Sunday
7,25.531666666666666
19,32.334306290183065
2,1, 7, 1, 0, 6,29.00,30.00,Sunday
7,25.55
19,32.33146427449406
2,1, 7, 1, 0, 6,30.00,31.00,Sunday
7,25.568333333333335
19,32.328649233621555
2,1, 7, 1, 0, 6,31.00,32.00,Sunday
7,25.586666666666666
19,32.325861843199405
2,1, 7, 1, 0, 6,32.00,33.00,Sunday
7,25.605
19,32.32310269883943
2,1, 7, 1, 0, 6,33.00,34.00,Sunday
7,25.623333333333335
19,32.32037232332474
2,1, 7, 1, 0, 6,34.00,35.00,Sunday
7,25.641666666666666
19,32.31767117317394
2,1, 7, 1, 0, 6,35.00,36.00,Sunday
7,25.66
19,32.314999644630404
2,1, 7, 1, 0, 6,36.00,37.00,Sunday
7,25.678333333333335
19,32.31235807912708
2,1, 7, 1, 0, 6,37.00,38.00,Sunday
7,25.69666666666667
19,32.30974676827227
2,1, 7, 1, 0, 6,38.00,39.00,Sunday
7,25.715
19,32.30716595839822
2,1, 7, 1, 0, 6,39.00,40.00,Sunday
7,25.733333333333334
19,32.30461585471038
2,1, 7, 1, 0, 6,40.00,41.00,Sunday
7,25.751666666666665
19,32.302096625072366
2,1, 7, 1, 0, 6,41.00,42.00,Sunday
7,25.77
19,32.29960840345812
2,1, 7, 1, 0, 6,42.00,43.00,Sunday
7,25.788333333333334
19,32.29715129310043
2,1, 7, 1, 0, 6,43.00,44.00,Sunday
7,25.80666666666667
19,32.2947253693623
2,1, 7, 1, 0, 6,44.00,45.00,Sunday
7,25.825000000000003
19,32.29233068235532
2,1, 7, 1, 0, 6,45.00,46.00,Sunday
7,25.843333333333334
19,32.28996725932701
2,1, 7, 1, 0, 6,46.00,47.00,Sunday
7,25.861666666666668
19,32.287635106837406
2,1, 7, 1, 0, 6,47.00,48.00,Sunday
7,25.880000000000003
19,32.28533421274325
2,1, 7, 1, 0, 6,48.00,49.00,Sunday
7,25.898333333333333
19,32.283064548006486
2,1, 7, 1, 0, 6,49.00,50.00,Sunday
7,25.91666666666667
19,32.280826068342726
2,1, 7, 1, 0, 6,50.00,51.00,Sunday
7,25.935000000000002
19,32.27862255211044
2,1, 7, 1, 0, 6,51.00,52.00,Sunday
7,25.953333333333333
19,32.2764493421911
2,1, 7, 1, 0, 6,52.00,53.00,Sunday
7,25.971666666666668
19,32.274305272301106
2,1, 7, 1, 0, 6,53.00,54.00,Sunday
7,25.990000000000002
19,32.27219087044326
2,1, 7, 1, 0, 6,54.00,55.00,Sunday
7,26.008333333333336
19,32.27010679671382
2,1, 7, 1, 0, 6,55.00,56.00,Sunday
7,26.02666666666667
19,32.268053352148705
2,1, 7, 1, 0, 6,56.00,57.00,Sunday
7,26.045
19,32.26603054452178
2,1, 7, 1, 0, 6,57.00,58.00,Sunday
7,26.063333333333333
19,32.26406526381824
2,1, 7, 1, 0, 6,58.00,59.00,Sunday
7,26.081666666666667
19,32.27225217017724
2,1, 7, 1, 0, 6,59.00,60.00,Sunday
7,26.1
19,32.29780459408723
2,1, 7, 1, 0, 6, 0.00,60.00,Sunday
8,26.4950149933677
9,26.519811452048664
10,26.534627163354
11,26.49010495123448
12,40.17265931197951
13,24.833068290218357
14,24.81288017218582
15,26.299706116036525
16,26.317342805981763
17,26.3309747950422
18,26.295756943767085
2,1, 7, 1, 0, 7, 0.00, 1.00,Sunday
7,26.08
19,32.334692976977934
2,1, 7, 1, 0, 7, 1.00, 2.00,Sunday
7,26.06
19,32.37413919250539
2,1, 7, 1, 0, 7, 2.00, 3.00,Sunday
7,26.040000000000003
19,32.41163525031394
2,1, 7, 1, 0, 7, 3.00, 4.00,Sunday
7,26.020000000000003
19,32.446047611433016
2,1, 7, 1, 0, 7, 4.00, 5.00,Sunday
7,26.0
19,32.477630469705254
2,1, 7, 1, 0, 7, 5.00, 6.00,Sunday
7,25.980000000000004
19,32.50688635629348
2,1, 7, 1, 0, 7, 6.00, 7.00,Sunday
7,25.96
19,32.534205091673954
2,1, 7, 1, 0, 7, 7.00, 8.00,Sunday
7,25.94
19,32.55984825313311
2,1, 7, 1, 0, 7, 8.00, 9.00,Sunday
7,25.92
19,32.58400859732791
2,1, 7, 1, 0, 7, 9.00,10.00,Sunday
7,25.900000000000002
19,32.60685180880757
2,1, 7, 1, 0, 7,10.00,11.00,Sunday
7,25.880000000000003
19,32.62852743053871
2,1, 7, 1, 0, 7,11.00,12.00,Sunday
7,25.860000000000003
19,32.64918163127735
2,1, 7, 1, 0, 7,12.00,13.00,Sunday
7,25.84
19,32.66895412723398
2,1, 7, 1, 0, 7,13.00,14.00,Sunday
7,25.819999999999997
19,32.687974931253734
2,1, 7, 1, 0, 7,14.00,15.00,Sunday
7,25.800000000000004
19,32.706363667381034
2,1, 7, 1, 0, 7,15.00,16.00,Sunday
7,25.780000000000005
19,32.72423048900051