Program Version,EnergyPlus, Version 25.1.0-1c11a3d85f, YMD=2026.04.10 14:05
1,5,Environment Title[],Latitude[deg],Longitude[deg],Time Zone[],Elevation[m]
2,8,Day of Simulation[],Month[],Day of Month[],DST Indicator[1=yes 0=no],Hour[],StartMinute[],EndMinute[],DayType
3,5,Cumulative Day of Simulation[],Month[],Day of Month[],DST Indicator[1=yes 0=no],DayType  ! When Daily Report Variables Requested
4,2,Cumulative Days of Simulation[],Month[]  ! When Monthly Report Variables Requested
5,1,Cumulative Days of Simulation[] ! When Run Period Report Variables Requested
6,1,Calendar Year of Simulation[] ! When Annual Report Variables Requested
7,1,Environment,Site Outdoor Air Drybulb Temperature [C] !TimeStep
8,1,WALL_N,Surface Inside Face Temperature [C] !Hourly
9,1,WALL_S,Surface Inside Face Temperature [C] !Hourly
10,1,WALL_E,Surface Inside Face Temperature [C] !Hourly
11,1,WALL_W,Surface Inside Face Temperature [C] !Hourly
12,1,FLOOR,Surface Inside Face Temperature [C] !Hourly
13,1,ROOF,Surface Inside Face Temperature [C] !Hourly
14,1,ROOF_GLASS,Surface Inside Face Temperature [C] !Hourly
15,1,WALL_N_GLASS,Surface Inside Face Temperature [C] !Hourly
16,1,WALL_S_GLASS,Surface Inside Face Temperature [C] !Hourly
17,1,WALL_E_GLASS,Surface Inside Face Temperature [C] !Hourly
18,1,WALL_W_GLASS,Surface Inside Face Temperature [C] !Hourly
19,1,GREENHOUSE,Zone Mean Air Temperature [C] !TimeStep
End of Data Dictionary
1,RUN PERIOD 1,  45.64,   5.88,   1.00, 235.00
2,1, 7, 1, 0, 1, 0.00, 1.00,Sunday
7,20.231666666666666
19,30.036661500223946
2,1, 7, 1, 0, 1, 1.00, 2.00,Sunday
7,20.163333333333334
19,30.017560939522696
2,1, 7, 1, 0, 1, 2.00, 3.00,Sunday
7,20.095
19,29.995414923725754
2,1, 7, 1, 0, 1, 3.00, 4.00,Sunday
7,20.026666666666667
19,29.970342713434885
2,1, 7, 1, 0, 1, 4.00, 5.00,Sunday
7,19.958333333333336
19,29.942666884207704
2,1, 7, 1, 0, 1, 5.00, 6.00,Sunday
7,19.89
19,29.912723171445975
2,1, 7, 1, 0, 1, 6.00, 7.00,Sunday
7,19.82166666666667
19,29.880799880985766
2,1, 7, 1, 0, 1, 7.00, 8.00,Sunday
7,19.753333333333334
19,29.847136657761343
2,1, 7, 1, 0, 1, 8.00, 9.00,Sunday
7,19.685
19,29.81193684826703
2,1, 7, 1, 0, 1, 9.00,10.00,Sunday
7,19.616666666666667
19,29.775377242183005
2,1, 7, 1, 0, 1,10.00,11.00,Sunday
7,19.548333333333332
19,29.73761405698659
2,1, 7, 1, 0, 1,11.00,12.00,Sunday
7,19.480000000000004
19,29.69878560836707
2,1, 7, 1, 0, 1,12.00,13.00,Sunday
7,19.41166666666667
19,29.8661704709015
2,1, 7, 1, 0, 1,13.00,14.00,Sunday
7,19.343333333333334
19,30.16488305362422
2,1, 7, 1, 0, 1,14.00,15.00,Sunday
7,19.275000000000002
19,30.491924962467756
2,1, 7, 1, 0, 1,15.00,16.00,Sunday
7,19.206666666666667
19,30.795310065967563
2,1, 7, 1, 0, 1,16.00,17.00,Sunday
7,19.138333333333335
19,31.06206102722364
2,1, 7, 1, 0, 1,17.00,18.00,Sunday
7,19.07
19,31.295144417165574
2,1, 7, 1, 0, 1,18.00,19.00,Sunday
7,19.00166666666667
19,31.50015815210391
2,1, 7, 1, 0, 1,19.00,20.00,Sunday
7,18.933333333333334
19,31.681270927676664
2,1, 7, 1, 0, 1,20.00,21.00,Sunday
7,18.865
19,31.841156900291743
2,1, 7, 1, 0, 1,21.00,22.00,Sunday
7,18.796666666666667
19,31.981727165215194
2,1, 7, 1, 0, 1,22.00,23.00,Sunday
7,18.728333333333335
19,32.10460697056818
2,1, 7, 1, 0, 1,23.00,24.00,Sunday
7,18.66
19,32.21111945641918
2,1, 7, 1, 0, 1,24.00,25.00,Sunday
7,18.591666666666665
19,32.302750281819954
2,1, 7, 1, 0, 1,25.00,26.00,Sunday
7,18.523333333333333
19,32.38090863347932
2,1, 7, 1, 0, 1,26.00,27.00,Sunday
7,18.455000000000002
19,32.44685856517492
2,1, 7, 1, 0, 1,27.00,28.00,Sunday
7,18.386666666666667
19,32.50172758652363
2,1, 7, 1, 0, 1,28.00,29.00,Sunday
7,18.318333333333335
19,32.54652995171499
2,1, 7, 1, 0, 1,29.00,30.00,Sunday
7,18.25
19,32.5824652287077
2,1, 7, 1, 0, 1,30.00,31.00,Sunday
7,18.181666666666665
19,32.61071593425514
2,1, 7, 1, 0, 1,31.00,32.00,Sunday
7,18.113333333333333
19,32.63217544528972
2,1, 7, 1, 0, 1,32.00,33.00,Sunday
7,18.045
19,32.64751652900904
2,1, 7, 1, 0, 1,33.00,34.00,Sunday
7,17.976666666666667
19,32.657294305964264
2,1, 7, 1, 0, 1,34.00,35.00,Sunday
7,17.90833333333333
19,32.66200278916041
2,1, 7, 1, 0, 1,35.00,36.00,Sunday
7,17.84
19,32.66209427063133
2,1, 7, 1, 0, 1,36.00,37.00,Sunday
7,17.77166666666667
19,32.65798331975351
2,1, 7, 1, 0, 1,37.00,38.00,Sunday
7,17.703333333333333
19,32.650047721600664
2,1, 7, 1, 0, 1,38.00,39.00,Sunday
7,17.634999999999998
19,32.63863018302877
2,1, 7, 1, 0, 1,39.00,40.00,Sunday
7,17.566666666666666
19,32.624040943130034
2,1, 7, 1, 0, 1,40.00,41.00,Sunday
7,17.498333333333335
19,32.60656066245397
2,1, 7, 1, 0, 1,41.00,42.00,Sunday
7,17.43
19,32.5864431761874
2,1, 7, 1, 0, 1,42.00,43.00,Sunday
7,17.361666666666665
19,32.56391797648401
2,1, 7, 1, 0, 1,43.00,44.00,Sunday
7,17.293333333333333
19,32.539192428244284
2,1, 7, 1, 0, 1,44.00,45.00,Sunday
7,17.224999999999998
19,32.51245375778047
2,1, 7, 1, 0, 1,45.00,46.00,Sunday
7,17.156666666666666
19,32.48387084887175
2,1, 7, 1, 0, 1,46.00,47.00,Sunday
7,17.08833333333333
19,32.45359586989969
2,1, 7, 1, 0, 1,47.00,48.00,Sunday
7,17.02
19,32.42176574888644
2,1, 7, 1, 0, 1,48.00,49.00,Sunday
7,16.951666666666664
19,32.38850351014679
2,1, 7, 1, 0, 1,49.00,50.00,Sunday
7,16.883333333333333
19,32.35391948489306
2,1, 7, 1, 0, 1,50.00,51.00,Sunday
7,16.815
19,32.31811240723077
2,1, 7, 1, 0, 1,51.00,52.00,Sunday
7,16.746666666666666
19,32.28117040610305
2,1, 7, 1, 0, 1,52.00,53.00,Sunday
7,16.678333333333335
19,32.24317190283582
2,1, 7, 1, 0, 1,53.00,54.00,Sunday
7,16.61
19,32.20418642304452
2,1, 7, 1, 0, 1,54.00,55.00,Sunday
7,16.541666666666664
19,32.164275330817446
2,1, 7, 1, 0, 1,55.00,56.00,Sunday
7,16.473333333333333
19,32.12349249229576
2,1, 7, 1, 0, 1,56.00,57.00,Sunday
7,16.405
19,32.081884875004434
2,1, 7, 1, 0, 1,57.00,58.00,Sunday
7,16.336666666666666
19,32.03949308853287
2,1, 7, 1, 0, 1,58.00,59.00,Sunday
7,16.26833333333333
19,31.99635187137749
2,1, 7, 1, 0, 1,59.00,60.00,Sunday
7,16.2
19,31.952490527903734
2,1, 7, 1, 0, 1, 0.00,60.00,Sunday
8,22.39836692862317
9,22.478530608769468
10,22.403297747113893
11,22.482951494064707
12,41.9188438266085
13,22.278554169030674
14,22.414652875128255
15,22.19400842026527
16,22.270929679920776
17,22.19932723590073
18,22.276357208538705
2,1, 7, 1, 0, 2, 0.00, 1.00,Sunday
7,16.19333333333333
19,31.909582583807165
2,1, 7, 1, 0, 2, 1.00, 2.00,Sunday
7,16.186666666666667
19,31.86868511342591
2,1, 7, 1, 0, 2, 2.00, 3.00,Sunday
7,16.18
19,31.830058706157466
2,1, 7, 1, 0, 2, 3.00, 4.00,Sunday
7,16.173333333333332
19,31.793725661910635
2,1, 7, 1, 0, 2, 4.00, 5.00,Sunday
7,16.166666666666664
19,31.759388247834504
2,1, 7, 1, 0, 2, 5.00, 6.00,Sunday
7,16.16
19,31.726761164572512
2,1, 7, 1, 0, 2, 6.00, 7.00,Sunday
7,16.153333333333332
19,31.6956401757765
2,1, 7, 1, 0, 2, 7.00, 8.00,Sunday
7,16.146666666666665
19,31.665877700384733
2,1, 7, 1, 0, 2, 8.00, 9.00,Sunday
7,16.14
19,31.63735319433334
2,1, 7, 1, 0, 2, 9.00,10.00,Sunday
7,16.133333333333333
19,31.609958078477305
2,1, 7, 1, 0, 2,10.00,11.00,Sunday
7,16.126666666666665
19,31.583591485195576
2,1, 7, 1, 0, 2,11.00,12.00,Sunday
7,16.12
19,31.558160043411114
2,1, 7, 1, 0, 2,12.00,13.00,Sunday
7,16.113333333333333
19,31.53357814922059
2,1, 7, 1, 0, 2,13.00,14.00,Sunday
7,16.106666666666666
19,31.509767800809342
2,1, 7, 1, 0, 2,14.00,15.00,Sunday
7,16.099999999999998
19,31.486658087013875
2,1, 7, 1, 0, 2,15.00,16.00,Sunday
7,16.093333333333334
19,31.464184563616584
2,1, 7, 1, 0, 2,16.00,17.00,Sunday
7,16.086666666666666
19,31.44228865017989
2,1, 7, 1, 0, 2,17.00,18.00,Sunday
7,16.08
19,31.420917086833335
2,1, 7, 1, 0, 2,18.00,19.00,Sunday
7,16.073333333333334
19,31.400021449410797
2,1, 7, 1, 0, 2,19.00,20.00,Sunday
7,16.066666666666666
19,31.37955771267719
2,1, 7, 1, 0, 2,20.00,21.00,Sunday
7,16.06
19,31.359485853637242
2,1, 7, 1, 0, 2,21.00,22.00,Sunday
7,16.053333333333335
19,31.339769490069802
2,1, 7, 1, 0, 2,22.00,23.00,Sunday
7,16.046666666666667
19,31.32037555111135
2,1, 7, 1, 0, 2,23.00,24.00,Sunday
7,16.04
19,31.301273977291682
2,1, 7, 1, 0, 2,24.00,25.00,Sunday
7,16.03333333333333
19,31.282437447586116
2,1, 7, 1, 0, 2,25.00,26.00,Sunday
7,16.026666666666667
19,31.26384113115007
2,1, 7, 1, 0, 2,26.00,27.00,Sunday
7,16.02
19,31.2454624615403
2,1, 7, 1, 0, 2,27.00,28.00,Sunday
7,16.013333333333332
19,31.227280931398198
2,1, 7, 1, 0, 2,28.00,29.00,Sunday
7,16.006666666666668
19,31.20927790574319
2,1, 7, 1, 0, 2,29.00,30.00,Sunday
7,16.0
19,31.191436452192644
2,1, 7, 1, 0, 2,30.00,31.00,Sunday
7,15.993333333333332
19,31.173741186574595
2,1, 7, 1, 0, 2,31.00,32.00,Sunday
7,15.986666666666668
19,31.15617813253888
2,1, 7, 1, 0, 2,32.00,33.00,Sunday
7,15.98
19,31.138734593897343
2,1, 7, 1, 0, 2,33.00,34.00,Sunday
7,15.973333333333333
19,31.12139903853827
2,1, 7, 1, 0, 2,34.00,35.00,Sunday
7,15.966666666666665
19,31.104160992865406
2,1, 7, 1, 0, 2,35.00,36.00,Sunday
7,15.96
19,31.087010945806934
2,1, 7, 1, 0, 2,36.00,37.00,Sunday
7,15.953333333333333
19,31.069940261525343
2,1, 7, 1, 0, 2,37.00,38.00,Sunday
7,15.946666666666665
19,31.052941100039178
2,1, 7, 1, 0, 2,38.00,39.00,Sunday
7,15.940000000000001
19,31.03600634503873
2,1, 7, 1, 0, 2,39.00,40.00,Sunday
7,15.933333333333334
19,31.019129538243003
2,1, 7, 1, 0, 2,40.00,41.00,Sunday
7,15.926666666666666
19,31.002304819705014
2,1, 7, 1, 0, 2,41.00,42.00,Sunday
7,15.920000000000002
19,30.9855268735251
2,1, 7, 1, 0, 2,42.00,43.00,Sunday
7,15.913333333333334
19,30.968790878482665
2,1, 7, 1, 0, 2,43.00,44.00,Sunday
7,15.906666666666666
19,30.952092463139895
2,1, 7, 1, 0, 2,44.00,45.00,Sunday
7,15.900000000000002
19,30.93542766501194
2,1, 7, 1, 0, 2,45.00,46.00,Sunday
7,15.893333333333334
19,30.9187928934351
2,1, 7, 1, 0, 2,46.00,47.00,Sunday
7,15.886666666666667
19,30.90218489579771
2,1, 7, 1, 0, 2,47.00,48.00,Sunday
7,15.879999999999999
19,30.885600726829047
2,1, 7, 1, 0, 2,48.00,49.00,Sunday
7,15.873333333333335
19,30.8690377206692
2,1, 7, 1, 0, 2,49.00,50.00,Sunday
7,15.866666666666667
19,30.8524934654677
2,1, 7, 1, 0, 2,50.00,51.00,Sunday
7,15.86
19,30.83596578028157
2,1, 7, 1, 0, 2,51.00,52.00,Sunday
7,15.853333333333335
19,30.819448095115742
2,1, 7, 1, 0, 2,52.00,53.00,Sunday
7,15.846666666666668
19,30.802933228639038
2,1, 7, 1, 0, 2,53.00,54.00,Sunday
7,15.84
19,30.786417119167183
2,1, 7, 1, 0, 2,54.00,55.00,Sunday
7,15.833333333333336
19,30.76989836868645
2,1, 7, 1, 0, 2,55.00,56.00,Sunday
7,15.826666666666668
19,30.753376736822787
2,1, 7, 1, 0, 2,56.00,57.00,Sunday
7,15.82
19,30.736852239516978
2,1, 7, 1, 0, 2,57.00,58.00,Sunday
7,15.813333333333333
19,30.720324853299406
2,1, 7, 1, 0, 2,58.00,59.00,Sunday
7,15.806666666666668
19,30.703794495156128
2,1, 7, 1, 0, 2,59.00,60.00,Sunday
7,15.8
19,30.687261064302064
2,1, 7, 1, 0, 2, 0.00,60.00,Sunday
8,22.252646311965425
9,22.380268849369184
10,22.259018744349394
11,22.386356187407713
12,40.79153166927303
13,21.771817734526188
14,21.739301759569397
15,21.702287526291443
16,21.820186610464376
17,21.709101072699106
18,21.827130128040707
2,1, 7, 1, 0, 3, 0.00, 1.00,Sunday
7,15.8
19,30.67074806913456
2,1, 7, 1, 0, 3, 1.00, 2.00,Sunday
7,15.8
19,30.654278033546966
2,1, 7, 1, 0, 3, 2.00, 3.00,Sunday
7,15.8
19,30.637859211052984
2,1, 7, 1, 0, 3, 3.00, 4.00,Sunday
7,15.8
19,30.621490273692082
2,1, 7, 1, 0, 3, 4.00, 5.00,Sunday
7,15.8
19,30.60516659208326
2,1, 7, 1, 0, 3, 5.00, 6.00,Sunday
7,15.8
19,30.588883410431112
2,1, 7, 1, 0, 3, 6.00, 7.00,Sunday
7,15.8
19,30.572636688787387
2,1, 7, 1, 0, 3, 7.00, 8.00,Sunday
7,15.800000000000002
19,30.55642303163089
2,1, 7, 1, 0, 3, 8.00, 9.00,Sunday
7,15.8
19,30.540239472189306
2,1, 7, 1, 0, 3, 9.00,10.00,Sunday
7,15.8
19,30.524083337361375
2,1, 7, 1, 0, 3,10.00,11.00,Sunday
7,15.8
19,30.507952191598555
2,1, 7, 1, 0, 3,11.00,12.00,Sunday
7,15.8
19,30.491843816232162
2,1, 7, 1, 0, 3,12.00,13.00,Sunday
7,15.8
19,30.475756196891098
2,1, 7, 1, 0, 3,13.00,14.00,Sunday
7,15.8
19,30.459687509907894
2,1, 7, 1, 0, 3,14.00,15.00,Sunday
7,15.8
19,30.44363610716583
2,1, 7, 1, 0, 3,15.00,16.00,Sunday
7,15.8
19,30.42760050080028
2,1, 7, 1, 0, 3,16.00,17.00,Sunday
7,15.8
19,30.41157934875667
2,1, 7, 1, 0, 3,17.00,18.00,Sunday
7,15.8
19,30.39557144155188
2,1, 7, 1, 0, 3,18.00,19.00,Sunday
7,15.8
19,30.37957569023428
2,1, 7, 1, 0, 3,19.00,20.00,Sunday
7,15.8
19,30.363591115432083
2,1, 7, 1, 0, 3,20.00,21.00,Sunday
7,15.8
19,30.347616837378496
2,1, 7, 1, 0, 3,21.00,22.00,Sunday
7,15.799999999999999
19,30.331652066821412
2,1, 7, 1, 0, 3,22.00,23.00,Sunday
7,15.8
19,30.315696096741917
2,1, 7, 1, 0, 3,23.00,24.00,Sunday
7,15.8
19,30.299748294812815
2,1, 7, 1, 0, 3,24.00,25.00,Sunday
7,15.8
19,30.283808096534248
2,1, 7, 1, 0, 3,25.00,26.00,Sunday
7,15.8
19,30.267874998987285
2,1, 7, 1, 0, 3,26.00,27.00,Sunday
7,15.8
19,30.25194855515079
2,1, 7, 1, 0, 3,27.00,28.00,Sunday
7,15.8
19,30.236028368731446
2,1, 7, 1, 0, 3,28.00,29.00,Sunday
7,15.799999999999999
19,30.22011408946048
2,1, 7, 1, 0, 3,29.00,30.00,Sunday
7,15.8
19,30.20420540881556
2,1, 7, 1, 0, 3,30.00,31.00,Sunday
7,15.8
19,30.1883020561297
2,1, 7, 1, 0, 3,31.00,32.00,Sunday
7,15.8
19,30.17240379505188
2,1, 7, 1, 0, 3,32.00,33.00,Sunday
7,15.8
19,30.15651042032837
2,1, 7, 1, 0, 3,33.00,34.00,Sunday
7,15.8
19,30.140621754874708
2,1, 7, 1, 0, 3,34.00,35.00,Sunday
7,15.8
19,30.12473764711324
2,1, 7, 1, 0, 3,35.00,36.00,Sunday
7,15.8
19,30.108857968551824
2,1, 7, 1, 0, 3,36.00,37.00,Sunday
7,15.8
19,30.092982611581643
2,1, 7, 1, 0, 3,37.00,38.00,Sunday
7,15.8
19,30.07711148747492
2,1, 7, 1, 0, 3,38.00,39.00,Sunday
7,15.8
19,30.061244524563737
2,1, 7, 1, 0, 3,39.00,40.00,Sunday
7,15.8
19,30.04538166658462
2,1, 7, 1, 0, 3,40.00,41.00,Sunday
7,15.8
19,30.029522871172798
2,1, 7, 1, 0, 3,41.00,42.00,Sunday
7,15.8
19,30.01366810849353
2,1, 7, 1, 0, 3,42.00,43.00,Sunday
7,15.8
19,29.99781735999791
2,1, 7, 1, 0, 3,43.00,44.00,Sunday
7,15.8
19,29.98197061729151
2,1, 7, 1, 0, 3,44.00,45.00,Sunday
7,15.8
19,29.966127881106182
2,1, 7, 1, 0, 3,45.00,46.00,Sunday
7,15.8
19,29.950289160365244
2,1, 7, 1, 0, 3,46.00,47.00,Sunday
7,15.8
19,29.934454471334117
2,1, 7, 1, 0, 3,47.00,48.00,Sunday
7,15.8
19,29.918623836848415
2,1, 7, 1, 0, 3,48.00,49.00,Sunday
7,15.8
19,29.90279728561251
2,1, 7, 1, 0, 3,49.00,50.00,Sunday
7,15.8
19,29.886974851562243
2,1, 7, 1, 0, 3,50.00,51.00,Sunday
7,15.8
19,29.871156573286164
2,1, 7, 1, 0, 3,51.00,52.00,Sunday
7,15.8
19,29.855342493499577
2,1, 7, 1, 0, 3,52.00,53.00,Sunday
7,15.8
19,29.839532658567098
2,1, 7, 1, 0, 3,53.00,54.00,Sunday
7,15.8
19,29.823727118069336
2,1, 7, 1, 0, 3,54.00,55.00,Sunday
7,15.8
19,29.807925924409183
2,1, 7, 1, 0, 3,55.00,56.00,Sunday
7,15.8
19,29.79212913245479
2,1, 7, 1, 0, 3,56.00,57.00,Sunday
7,15.8
19,29.776336799215425
2,1, 7, 1, 0, 3,57.00,58.00,Sunday
7,15.8
19,29.76054898354779
2,1, 7, 1, 0, 3,58.00,59.00,Sunday
7,15.8
19,29.744765745889268
2,1, 7, 1, 0, 3,59.00,60.00,Sunday
7,15.8
19,29.728987148016387
2,1, 7, 1, 0, 3, 0.00,60.00,Sunday
8,21.44664922517451
9,21.57792174067634
10,21.452842125653685
11,21.583579829011473
12,39.64791256385729
13,20.93493555202002
14,20.928115169917582
15,20.952292729407805
16,21.071179759950805
17,20.9587887034397
18,21.077819011843022
2,1, 7, 1, 0, 4, 0.00, 1.00,Sunday
7,15.805
19,29.713331243083832
2,1, 7, 1, 0, 4, 1.00, 2.00,Sunday
7,15.81
19,29.69791450804287
2,1, 7, 1, 0, 4, 2.00, 3.00,Sunday
7,15.815
19,29.682780668783607
2,1, 7, 1, 0, 4, 3.00, 4.00,Sunday
7,15.820000000000002
19,29.66792314019951
2,1, 7, 1, 0, 4, 4.00, 5.00,Sunday
7,15.825000000000001
19,29.653317375979338
2,1, 7, 1, 0, 4, 5.00, 6.00,Sunday
7,15.830000000000002
19,29.638937782494683
2,1, 7, 1, 0, 4, 6.00, 7.00,Sunday
7,15.835
19,29.624762419710688
2,1, 7, 1, 0, 4, 7.00, 8.00,Sunday
7,15.840000000000002
19,29.610772748877064
2,1, 7, 1, 0, 4, 8.00, 9.00,Sunday
7,15.844999999999999
19,29.596952518736966
2,1, 7, 1, 0, 4, 9.00,10.00,Sunday
7,15.850000000000001
19,29.583287041077057
2,1, 7, 1, 0, 4,10.00,11.00,Sunday
7,15.855
19,29.569762880830357
2,1, 7, 1, 0, 4,11.00,12.00,Sunday
7,15.860000000000001
19,29.556367739745163
2,1, 7, 1, 0, 4,12.00,13.00,Sunday
7,15.865
19,29.543090387904947
2,1, 7, 1, 0, 4,13.00,14.00,Sunday
7,15.870000000000001
19,29.529960709107616
2,1, 7, 1, 0, 4,14.00,15.00,Sunday
7,15.875000000000002
19,29.51701557533242
2,1, 7, 1, 0, 4,15.00,16.00,Sunday
7,15.880000000000003
19,29.504267563460324
2,1, 7, 1, 0, 4,16.00,17.00,Sunday
7,15.885000000000002
19,29.491708751576972
2,1, 7, 1, 0, 4,17.00,18.00,Sunday
7,15.89
19,29.479323132845103
2,1, 7, 1, 0, 4,18.00,19.00,Sunday
7,15.895
19,29.46709413331667
2,1, 7, 1, 0, 4,19.00,20.00,Sunday
7,15.900000000000002
19,29.455007045996602
2,1, 7, 1, 0, 4,20.00,21.00,Sunday
7,15.905000000000001
19,29.443049104092292
2,1, 7, 1, 0, 4,21.00,22.00,Sunday
7,15.91
19,29.431209009092225
2,1, 7, 1, 0, 4,22.00,23.00,Sunday
7,15.915000000000003
19,29.419476563352838
2,1, 7, 1, 0, 4,23.00,24.00,Sunday
7,15.920000000000002
19,29.407842477922117
2,1, 7, 1, 0, 4,24.00,25.00,Sunday
7,15.925
19,29.396298276723
2,1, 7, 1, 0, 4,25.00,26.00,Sunday
7,15.93
19,29.38483623268878
2,1, 7, 1, 0, 4,26.00,27.00,Sunday
7,15.935000000000002
19,29.37344930932783
2,1, 7, 1, 0, 4,27.00,28.00,Sunday
7,15.940000000000001
19,29.362130567391286
2,1, 7, 1, 0, 4,28.00,29.00,Sunday
7,15.945
19,29.350874958755522
2,1, 7, 1, 0, 4,29.00,30.00,Sunday
7,15.950000000000001
19,29.339677150073303
2,1, 7, 1, 0, 4,30.00,31.00,Sunday
7,15.955000000000002
19,29.328532198839206
2,1, 7, 1, 0, 4,31.00,32.00,Sunday
7,15.96
19,29.317435647298748
2,1, 7, 1, 0, 4,32.00,33.00,Sunday
7,15.965000000000002
19,29.306383476930257
2,1, 7, 1, 0, 4,33.00,34.00,Sunday
7,15.97
19,29.295372048944472
2,1, 7, 1, 0, 4,34.00,35.00,Sunday
7,15.975000000000001
19,29.284398056639702
2,1, 7, 1, 0, 4,35.00,36.00,Sunday
7,15.98
19,29.27345849078195
2,1, 7, 1, 0, 4,36.00,37.00,Sunday
7,15.985000000000001
19,29.262550612421798
2,1, 7, 1, 0, 4,37.00,38.00,Sunday
7,15.990000000000002
19,29.251671929225168
2,1, 7, 1, 0, 4,38.00,39.00,Sunday
7,15.995000000000001
19,29.24082017377335
2,1, 7, 1, 0, 4,39.00,40.00,Sunday
7,16.0
19,29.229993283502182
2,1, 7, 1, 0, 4,40.00,41.00,Sunday
7,16.005000000000003
19,29.219189382275808
2,1, 7, 1, 0, 4,41.00,42.00,Sunday
7,16.01
19,29.208406763570938
2,1, 7, 1, 0, 4,42.00,43.00,Sunday
7,16.015
19,29.197643875181143
2,1, 7, 1, 0, 4,43.00,44.00,Sunday
7,16.020000000000003
19,29.186899305313787
2,1, 7, 1, 0, 4,44.00,45.00,Sunday
7,16.025000000000002
19,29.176171769949928
2,1, 7, 1, 0, 4,45.00,46.00,Sunday
7,16.03
19,29.165460101348025
2,1, 7, 1, 0, 4,46.00,47.00,Sunday
7,16.035000000000004
19,29.154763237585794
2,1, 7, 1, 0, 4,47.00,48.00,Sunday
7,16.040000000000003
19,29.144080213044596
2,1, 7, 1, 0, 4,48.00,49.00,Sunday
7,16.045
19,29.133410149750826
2,1, 7, 1, 0, 4,49.00,50.00,Sunday
7,16.05
19,29.122752249497232
2,1, 7, 1, 0, 4,50.00,51.00,Sunday
7,16.055
19,29.112105786672746
2,1, 7, 1, 0, 4,51.00,52.00,Sunday
7,16.060000000000002
19,29.101470101737487
2,1, 7, 1, 0, 4,52.00,53.00,Sunday
7,16.065
19,29.09084459528417
2,1, 7, 1, 0, 4,53.00,54.00,Sunday
7,16.07
19,29.080228722633272
2,1, 7, 1, 0, 4,54.00,55.00,Sunday
7,16.075000000000003
19,29.069621988913696
2,1, 7, 1, 0, 4,55.00,56.00,Sunday
7,16.080000000000002
19,29.059023944585565
2,1, 7, 1, 0, 4,56.00,57.00,Sunday
7,16.085
19,29.04843418136465
2,1, 7, 1, 0, 4,57.00,58.00,Sunday
7,16.09
19,29.037852328513406
2,1, 7, 1, 0, 4,58.00,59.00,Sunday
7,16.095000000000002
19,29.02727804946426
2,1, 7, 1, 0, 4,59.00,60.00,Sunday
7,16.1
19,29.016711038746525
2,1, 7, 1, 0, 4, 0.00,60.00,Sunday
8,20.943162831597792
9,21.046106834800888
10,20.99874067659141
11,21.001614252950862
12,38.577461294479455
13,20.333478992915634
14,20.350400285727915
15,20.50675279052893
16,20.59891459362641
17,20.560392380902428
18,20.557670345692486
2,1, 7, 1, 0, 5, 0.00, 1.00,Sunday
7,16.113333333333333
19,29.00635867538798
2,1, 7, 1, 0, 5, 1.00, 2.00,Sunday
7,16.12666666666667
19,28.99642930394455
2,1, 7, 1, 0, 5, 2.00, 3.00,Sunday
7,16.14
19,28.987003560059406
2,1, 7, 1, 0, 5, 3.00, 4.00,Sunday
7,16.153333333333336
19,28.978071240109742
2,1, 7, 1, 0, 5, 4.00, 5.00,Sunday
7,16.166666666666668
19,28.969588680503062
2,1, 7, 1, 0, 5, 5.00, 6.00,Sunday
7,16.180000000000003
19,28.96150962136646
2,1, 7, 1, 0, 5, 6.00, 7.00,Sunday
7,16.193333333333335
19,28.953794145519254
2,1, 7, 1, 0, 5, 7.00, 8.00,Sunday
7,16.206666666666667
19,28.94640845588682
2,1, 7, 1, 0, 5, 8.00, 9.00,Sunday
7,16.22
19,28.939322927532864
2,1, 7, 1, 0, 5, 9.00,10.00,Sunday
7,16.233333333333334
19,28.932510794836116
2,1, 7, 1, 0, 5,10.00,11.00,Sunday
7,16.246666666666666
19,28.925947576266545
2,1, 7, 1, 0, 5,11.00,12.00,Sunday
7,16.26
19,28.919610854773758
2,1, 7, 1, 0, 5,12.00,13.00,Sunday
7,16.273333333333333
19,28.913480150667763
2,1, 7, 1, 0, 5,13.00,14.00,Sunday
7,16.286666666666665
19,28.907536791978906
2,1, 7, 1, 0, 5,14.00,15.00,Sunday
7,16.3
19,28.90176377198477
2,1, 7, 1, 0, 5,15.00,16.00,Sunday
7,16.313333333333333
19,28.896145605484346
2,1, 7, 1, 0, 5,16.00,17.00,Sunday
7,16.326666666666668
19,28.890668193034365
2,1, 7, 1, 0, 5,17.00,18.00,Sunday
7,16.34
19,28.88531869652502
2,1, 7, 1, 0, 5,18.00,19.00,Sunday
7,16.353333333333335
19,28.88008542610861
2,1, 7, 1, 0, 5,19.00,20.00,Sunday
7,16.366666666666667
19,28.87495773743106
2,1, 7, 1, 0, 5,20.00,21.00,Sunday
7,16.380000000000003
19,28.869925938077476
2,1, 7, 1, 0, 5,21.00,22.00,Sunday
7,16.39333333333333
19,28.864981202336978
2,1, 7, 1, 0, 5,22.00,23.00,Sunday
7,16.406666666666666
19,28.8601154935475
2,1, 7, 1, 0, 5,23.00,24.00,Sunday
7,16.42
19,28.855321493369527
2,1, 7, 1, 0, 5,24.00,25.00,Sunday
7,16.43333333333333
19,28.85059253738994
2,1, 7, 1, 0, 5,25.00,26.00,Sunday
7,16.446666666666665
19,28.845922556501733
2,1, 7, 1, 0, 5,26.00,27.00,Sunday
7,16.46
19,28.841306023546245
2,1, 7, 1, 0, 5,27.00,28.00,Sunday
7,16.473333333333333
19,28.836737904747498
2,1, 7, 1, 0, 5,28.00,29.00,Sunday
7,16.486666666666665
19,28.83221361550907
2,1, 7, 1, 0, 5,29.00,30.00,Sunday
7,16.5
19,28.827728980181135
2,1, 7, 1, 0, 5,30.00,31.00,Sunday
7,16.513333333333335
19,28.82328019544108
2,1, 7, 1, 0, 5,31.00,32.00,Sunday
7,16.526666666666667
19,28.81886379696255
2,1, 7, 1, 0, 5,32.00,33.00,Sunday
7,16.54
19,28.814476629076694
2,1, 7, 1, 0, 5,33.00,34.00,Sunday
7,16.553333333333335
19,28.81011581715681
2,1, 7, 1, 0, 5,34.00,35.00,Sunday
7,16.566666666666666
19,28.805778742481145
2,1, 7, 1, 0, 5,35.00,36.00,Sunday
7,16.58
19,28.801513367982988
2,1, 7, 1, 0, 5,36.00,37.00,Sunday
7,16.593333333333334
19,28.797375391922486
2,1, 7, 1, 0, 5,37.00,38.00,Sunday
7,16.606666666666666
19,28.79338932894878
2,1, 7, 1, 0, 5,38.00,39.00,Sunday
7,16.619999999999997
19,28.789553335677063
2,1, 7, 1, 0, 5,39.00,40.00,Sunday
7,16.633333333333333
19,28.78585472743644
2,1, 7, 1, 0, 5,40.00,41.00,Sunday
7,16.646666666666665
19,28.78227941852921
2,1, 7, 1, 0, 5,41.00,42.00,Sunday
7,16.66
19,28.77881503126632
2,1, 7, 1, 0, 5,42.00,43.00,Sunday
7,16.673333333333332
19,28.775451053267407
2,1, 7, 1, 0, 5,43.00,44.00,Sunday
7,16.686666666666667
19,28.772178304131536
2,1, 7, 1, 0, 5,44.00,45.00,Sunday
7,16.7
19,28.76898852405755
2,1, 7, 1, 0, 5,45.00,46.00,Sunday
7,16.713333333333335
19,28.765874175395673
2,1, 7, 1, 0, 5,46.00,47.00,Sunday
7,16.726666666666667
19,28.762828360421324
2,1, 7, 1, 0, 5,47.00,48.00,Sunday
7,16.74
19,28.759844775727455
2,1, 7, 1, 0, 5,48.00,49.00,Sunday
7,16.753333333333334
19,28.756917670445688
2,1, 7, 1, 0, 5,49.00,50.00,Sunday
7,16.766666666666666
19,28.754041802295674
2,1, 7, 1, 0, 5,50.00,51.00,Sunday
7,16.779999999999998
19,28.7512123937182
2,1, 7, 1, 0, 5,51.00,52.00,Sunday
7,16.793333333333333
19,28.748425090526684
2,1, 7, 1, 0, 5,52.00,53.00,Sunday
7,16.806666666666665
19,28.745675924049266
2,1, 7, 1, 0, 5,53.00,54.00,Sunday
7,16.82
19,28.74296127676582
2,1, 7, 1, 0, 5,54.00,55.00,Sunday
7,16.833333333333332
19,28.740277851108317
2,1, 7, 1, 0, 5,55.00,56.00,Sunday
7,16.846666666666664
19,28.737622641075994
2,1, 7, 1, 0, 5,56.00,57.00,Sunday
7,16.859999999999996
19,28.74451725766788
2,1, 7, 1, 0, 5,57.00,58.00,Sunday
7,16.87333333333333
19,28.76556711401061
2,1, 7, 1, 0, 5,58.00,59.00,Sunday
7,16.886666666666667
19,28.799073103772894
2,1, 7, 1, 0, 5,59.00,60.00,Sunday
7,16.9
19,28.83954950189112
2,1, 7, 1, 0, 5, 0.00,60.00,Sunday
8,20.982912820805456
9,21.060577228337838
10,21.084652102618616
11,20.975807731604693
12,37.72504924625432
13,20.297671345538237
14,20.332745080972476
15,20.603535934330317
16,20.676901802030862
17,20.695351661350696
18,20.600790000292015
2,1, 7, 1, 0, 6, 0.00, 1.00,Sunday
7,16.924999999999997
19,28.881413812327388
2,1, 7, 1, 0, 6, 1.00, 2.00,Sunday
7,16.95
19,28.92213622799719
2,1, 7, 1, 0, 6, 2.00, 3.00,Sunday
7,16.974999999999994
19,28.961197287094496
2,1, 7, 1, 0, 6, 3.00, 4.00,Sunday
7,17.0
19,28.99879659524311
2,1, 7, 1, 0, 6, 4.00, 5.00,Sunday
7,17.025
19,29.035213248183815
2,1, 7, 1, 0, 6, 5.00, 6.00,Sunday
7,17.049999999999997
19,29.070638156755496
2,1, 7, 1, 0, 6, 6.00, 7.00,Sunday
7,17.074999999999996
19,29.10518730560278
2,1, 7, 1, 0, 6, 7.00, 8.00,Sunday
7,17.1
19,29.1389421026205
2,1, 7, 1, 0, 6, 8.00, 9.00,Sunday
7,17.125
19,29.17197288040325
2,1, 7, 1, 0, 6, 9.00,10.00,Sunday
7,17.15
19,29.204346459644366
2,1, 7, 1, 0, 6,10.00,11.00,Sunday
7,17.174999999999997
19,29.23612669131663
2,1, 7, 1, 0, 6,11.00,12.00,Sunday
7,17.2
19,29.267373530576116
2,1, 7, 1, 0, 6,12.00,13.00,Sunday
7,17.224999999999998
19,29.29814251639709
2,1, 7, 1, 0, 6,13.00,14.00,Sunday
7,17.25
19,29.328484791667737
2,1, 7, 1, 0, 6,14.00,15.00,Sunday
7,17.275
19,29.358447388576323
2,1, 7, 1, 0, 6,15.00,16.00,Sunday
7,17.299999999999997
19,29.38807357566547
2,1, 7, 1, 0, 6,16.00,17.00,Sunday
7,17.325
19,29.417403185892333
2,1, 7, 1, 0, 6,17.00,18.00,Sunday
7,17.349999999999998
19,29.446472905889745
2,1, 7, 1, 0, 6,18.00,19.00,Sunday
7,17.375
19,29.47531653667247
2,1, 7, 1, 0, 6,19.00,20.00,Sunday
7,17.4
19,29.503965233564898
2,1, 7, 1, 0, 6,20.00,21.00,Sunday
7,17.424999999999997
19,29.532447726509133
2,1, 7, 1, 0, 6,21.00,22.00,Sunday
7,17.449999999999996
19,29.56079052122892
2,1, 7, 1, 0, 6,22.00,23.00,Sunday
7,17.475
19,29.589018086788943
2,1, 7, 1, 0, 6,23.00,24.00,Sunday
7,17.5
19,29.617153026705424
2,1, 7, 1, 0, 6,24.00,25.00,Sunday
7,17.525
19,29.645216236793285
2,1, 7, 1, 0, 6,25.00,26.00,Sunday
7,17.549999999999997
19,29.67322704834963
2,1, 7, 1, 0, 6,26.00,27.00,Sunday
7,17.575
19,29.701203360139292
2,1, 7, 1, 0, 6,27.00,28.00,Sunday
7,17.599999999999998
19,29.729161758276057
2,1, 7, 1, 0, 6,28.00,29.00,Sunday
7,17.625
19,29.75711762635164
2,1, 7, 1, 0, 6,29.00,30.00,Sunday
7,17.65
19,29.78505769601147
2,1, 7, 1, 0, 6,30.00,31.00,Sunday
7,17.674999999999997
19,29.812959699219743
2,1, 7, 1, 0, 6,31.00,32.00,Sunday
7,17.7
19,29.840822431333724
2,1, 7, 1, 0, 6,32.00,33.00,Sunday
7,17.724999999999998
19,29.868662132520274
2,1, 7, 1, 0, 6,33.00,34.00,Sunday
7,17.75
19,29.89650130510877
2,1, 7, 1, 0, 6,34.00,35.00,Sunday
7,17.775
19,29.924362138220214
2,1, 7, 1, 0, 6,35.00,36.00,Sunday
7,17.799999999999997
19,29.952264466211634
2,1, 7, 1, 0, 6,36.00,37.00,Sunday
7,17.825
19,29.98022578266453
2,1, 7, 1, 0, 6,37.00,38.00,Sunday
7,17.849999999999998
19,30.00826171722407
2,1, 7, 1, 0, 6,38.00,39.00,Sunday
7,17.875
19,30.03638641695836
2,1, 7, 1, 0, 6,39.00,40.00,Sunday
7,17.9
19,30.064612770232312
2,1, 7, 1, 0, 6,40.00,41.00,Sunday
7,17.924999999999997
19,30.09295254316383
2,1, 7, 1, 0, 6,41.00,42.00,Sunday
7,17.95
19,30.121416485524865
2,1, 7, 1, 0, 6,42.00,43.00,Sunday
7,17.974999999999998
19,30.150014422740966
2,1, 7, 1, 0, 6,43.00,44.00,Sunday
7,17.999999999999996
19,30.1787553448934
2,1, 7, 1, 0, 6,44.00,45.00,Sunday
7,18.025
19,30.207647490235033
2,1, 7, 1, 0, 6,45.00,46.00,Sunday
7,18.05
19,30.236698418704613
2,1, 7, 1, 0, 6,46.00,47.00,Sunday
7,18.075
19,30.265915078711227
2,1, 7, 1, 0, 6,47.00,48.00,Sunday
7,18.099999999999998
19,30.295303866802627
2,1, 7, 1, 0, 6,48.00,49.00,Sunday
7,18.125
19,30.324870681809795
2,1, 7, 1, 0, 6,49.00,50.00,Sunday
7,18.15
19,30.354620973879673
2,1, 7, 1, 0, 6,50.00,51.00,Sunday
7,18.174999999999997
19,30.38455978508362
2,1, 7, 1, 0, 6,51.00,52.00,Sunday
7,18.2
19,30.414691784858107
2,1, 7, 1, 0, 6,52.00,53.00,Sunday
7,18.224999999999998
19,30.44502130766274
2,1, 7, 1, 0, 6,53.00,54.00,Sunday
7,18.25
19,30.475552384648253
2,1, 7, 1, 0, 6,54.00,55.00,Sunday
7,18.275
19,30.50628499210135
2,1, 7, 1, 0, 6,55.00,56.00,Sunday
7,18.299999999999997
19,30.537222212267906
2,1, 7, 1, 0, 6,56.00,57.00,Sunday
7,18.324999999999996
19,30.56836967961522
2,1, 7, 1, 0, 6,57.00,58.00,Sunday
7,18.349999999999998
19,30.600109788559962
2,1, 7, 1, 0, 6,58.00,59.00,Sunday
7,18.374999999999996
19,30.632919134378586
2,1, 7, 1, 0, 6,59.00,60.00,Sunday
7,18.4
19,30.66698682661361
2,1, 7, 1, 0, 6, 0.00,60.00,Sunday
8,23.042284029261022
9,22.588951106708382
10,23.641359701707113
11,22.499776103163178
12,38.61704903232276
13,22.027613794225427
14,21.852552984234652
15,22.203400952669984
16,22.07933261389083
17,22.461448341455693
18,22.003364078209867
2,1, 7, 1, 0, 7, 0.00, 1.00,Sunday
7,18.38333333333333
19,30.701240538020066
2,1, 7, 1, 0, 7, 1.00, 2.00,Sunday
7,18.366666666666664
19,30.73503911388052
2,1, 7, 1, 0, 7, 2.00, 3.00,Sunday
7,18.349999999999998
19,30.76820085420431
2,1, 7, 1, 0, 7, 3.00, 4.00,Sunday
7,18.333333333333332
19,30.80076412230611
2,1, 7, 1, 0, 7, 4.00, 5.00,Sunday
7,18.316666666666663
19,30.832826974953715
2,1, 7, 1, 0, 7, 5.00, 6.00,Sunday
7,18.299999999999997
19,30.864468136003715
2,1, 7, 1, 0, 7, 6.00, 7.00,Sunday
7,18.28333333333333
19,30.895749339097524
2,1, 7, 1, 0, 7, 7.00, 8.00,Sunday
7,18.266666666666666
19,30.92672138272181
2,1, 7, 1, 0, 7, 8.00, 9.00,Sunday
7,18.25
19,30.957429580118294
2,1, 7, 1, 0, 7, 9.00,10.00,Sunday
7,18.23333333333333
19,30.9879158885645
2,1, 7, 1, 0, 7,10.00,11.00,Sunday
7,18.216666666666665
19,31.018219334234015
2,1, 7, 1, 0, 7,11.00,12.00,Sunday
7,18.2
19,31.048375991335085
2,1, 7, 1, 0, 7,12.00,13.00,Sunday
7,18.183333333333334
19,31.07841899992386
2,1, 7, 1, 0, 7,13.00,14.00,Sunday
7,18.166666666666664
19,31.108378706495547
2,1, 7, 1, 0, 7,14.00,15.00,Sunday
7,18.15
19,31.13828287095315