Program Version,EnergyPlus, Version 25.1.0-1c11a3d85f, YMD=2026.04.14 13:22
1,5,Environment Title[],Latitude[deg],Longitude[deg],Time Zone[],Elevation[m]
2,8,Day of Simulation[],Month[],Day of Month[],DST Indicator[1=yes 0=no],Hour[],StartMinute[],EndMinute[],DayType
3,5,Cumulative Day of Simulation[],Month[],Day of Month[],DST Indicator[1=yes 0=no],DayType  ! When Daily Report Variables Requested
4,2,Cumulative Days of Simulation[],Month[]  ! When Monthly Report Variables Requested
5,1,Cumulative Days of Simulation[] ! When Run Period Report Variables Requested
6,1,Calendar Year of Simulation[] ! When Annual Report Variables Requested
7,1,Environment,Site Outdoor Air Drybulb Temperature [C] !TimeStep
14,1,GREENHOUSE,Zone Mean Air Temperature [C] !TimeStep
End of Data Dictionary
1,RUN1,  50.90,   4.53,   1.00,  58.00
2,1,12,10, 0, 1, 0.00, 1.00,Sunday
7,7.456666666666667
14,5.970870534876189
2,1,12,10, 0, 1, 1.00, 2.00,Sunday
7,7.413333333333333
14,5.966533229074564
2,1,12,10, 0, 1, 2.00, 3.00,Sunday
7,7.37
14,5.962393670773393
2,1,12,10, 0, 1, 3.00, 4.00,Sunday
7,7.326666666666666
14,5.957625746822318
2,1,12,10, 0, 1, 4.00, 5.00,Sunday
7,7.283333333333333
14,5.9501775525894685
2,1,12,10, 0, 1, 5.00, 6.00,Sunday
7,7.24
14,5.938889915674261
2,1,12,10, 0, 1, 6.00, 7.00,Sunday
7,7.196666666666667
14,5.923885261072817
2,1,12,10, 0, 1, 7.00, 8.00,Sunday
7,7.153333333333333
14,5.905765214662226
2,1,12,10, 0, 1, 8.00, 9.00,Sunday
7,7.11
14,5.885149984144144
2,1,12,10, 0, 1, 9.00,10.00,Sunday
7,7.066666666666666
14,5.862526461260146
2,1,12,10, 0, 1,10.00,11.00,Sunday
7,7.023333333333333
14,5.838252285209868
2,1,12,10, 0, 1,11.00,12.00,Sunday
7,6.98
14,5.812597078432327
2,1,12,10, 0, 1,12.00,13.00,Sunday
7,6.9366666666666665
14,5.785775684066158
2,1,12,10, 0, 1,13.00,14.00,Sunday
7,6.8933333333333335
14,5.757966595188134
2,1,12,10, 0, 1,14.00,15.00,Sunday
7,6.85
14,5.729320841470516
2,1,12,10, 0, 1,15.00,16.00,Sunday
7,6.806666666666667
14,5.699966694338923
2,1,12,10, 0, 1,16.00,17.00,Sunday
7,6.763333333333334
14,5.670012997472137
2,1,12,10, 0, 1,17.00,18.00,Sunday
7,6.72
14,5.639552060769601
2,1,12,10, 0, 1,18.00,19.00,Sunday
7,6.676666666666667
14,5.608662256230454
2,1,12,10, 0, 1,19.00,20.00,Sunday
7,6.633333333333335
14,5.577410270523307
2,1,12,10, 0, 1,20.00,21.00,Sunday
7,6.59
14,5.5458529971266035
2,1,12,10, 0, 1,21.00,22.00,Sunday
7,6.546666666666667
14,5.514039100306307
2,1,12,10, 0, 1,22.00,23.00,Sunday
7,6.503333333333334
14,5.4820103047634365
2,1,12,10, 0, 1,23.00,24.00,Sunday
7,6.46
14,5.449802463877803
2,1,12,10, 0, 1,24.00,25.00,Sunday
7,6.416666666666666
14,5.417446449899858
2,1,12,10, 0, 1,25.00,26.00,Sunday
7,6.373333333333333
14,5.384968899485238
2,1,12,10, 0, 1,26.00,27.00,Sunday
7,6.33
14,5.352392840303579
2,1,12,10, 0, 1,27.00,28.00,Sunday
7,6.286666666666667
14,5.3197382190418745
2,1,12,10, 0, 1,28.00,29.00,Sunday
7,6.243333333333333
14,5.287022347241323
2,1,12,10, 0, 1,29.00,30.00,Sunday
7,6.2
14,5.254260278460797
2,1,12,10, 0, 1,30.00,31.00,Sunday
7,6.156666666666666
14,5.221465127912822
2,1,12,10, 0, 1,31.00,32.00,Sunday
7,6.113333333333333
14,5.188648343800966
2,1,12,10, 0, 1,32.00,33.00,Sunday
7,6.07
14,5.155819938012434
2,1,12,10, 0, 1,33.00,34.00,Sunday
7,6.026666666666667
14,5.1229886825257775
2,1,12,10, 0, 1,34.00,35.00,Sunday
7,5.983333333333333
14,5.0901622768302754
2,1,12,10, 0, 1,35.00,36.00,Sunday
7,5.9399999999999995
14,5.057347490778789
2,1,12,10, 0, 1,36.00,37.00,Sunday
7,5.8966666666666665
14,5.024550286573371
2,1,12,10, 0, 1,37.00,38.00,Sunday
7,5.8533333333333335
14,4.991775922984426
2,1,12,10, 0, 1,38.00,39.00,Sunday
7,5.8100000000000005
14,4.959029044405504
2,1,12,10, 0, 1,39.00,40.00,Sunday
7,5.7666666666666675
14,4.926313756929664
2,1,12,10, 0, 1,40.00,41.00,Sunday
7,5.723333333333334
14,4.893633693284059
2,1,12,10, 0, 1,41.00,42.00,Sunday
7,5.680000000000001
14,4.860992068164802
2,1,12,10, 0, 1,42.00,43.00,Sunday
7,5.636666666666667
14,4.828391725264681
2,1,12,10, 0, 1,43.00,44.00,Sunday
7,5.593333333333334
14,4.795835177073533
2,1,12,10, 0, 1,44.00,45.00,Sunday
7,5.550000000000001
14,4.763336045615165
2,1,12,10, 0, 1,45.00,46.00,Sunday
7,5.506666666666667
14,4.730911170827271
2,1,12,10, 0, 1,46.00,47.00,Sunday
7,5.463333333333333
14,4.698550095949835
2,1,12,10, 0, 1,47.00,48.00,Sunday
7,5.42
14,4.666233124705131
2,1,12,10, 0, 1,48.00,49.00,Sunday
7,5.376666666666667
14,4.633945326034845
2,1,12,10, 0, 1,49.00,50.00,Sunday
7,5.333333333333334
14,4.601679735926725
2,1,12,10, 0, 1,50.00,51.00,Sunday
7,5.29
14,4.569433830049064
2,1,12,10, 0, 1,51.00,52.00,Sunday
7,5.246666666666667
14,4.537206685005607
2,1,12,10, 0, 1,52.00,53.00,Sunday
7,5.203333333333333
14,4.504997643613635
2,1,12,10, 0, 1,53.00,54.00,Sunday
7,5.16
14,4.472805984350053
2,1,12,10, 0, 1,54.00,55.00,Sunday
7,5.116666666666667
14,4.440630953691915
2,1,12,10, 0, 1,55.00,56.00,Sunday
7,5.073333333333334
14,4.408471847142715
2,1,12,10, 0, 1,56.00,57.00,Sunday
7,5.03
14,4.376328050127983
2,1,12,10, 0, 1,57.00,58.00,Sunday
7,4.986666666666667
14,4.344199042904003
2,1,12,10, 0, 1,58.00,59.00,Sunday
7,4.943333333333333
14,4.312084389953124
2,1,12,10, 0, 1,59.00,60.00,Sunday
7,4.9
14,4.279983726853735
2,1,12,10, 0, 2, 0.00, 1.00,Sunday
7,4.901666666666666
14,4.248786707507317
2,1,12,10, 0, 2, 1.00, 2.00,Sunday
7,4.903333333333334
14,4.219992455938196
2,1,12,10, 0, 2, 2.00, 3.00,Sunday
7,4.905
14,4.194237146183088
2,1,12,10, 0, 2, 3.00, 4.00,Sunday
7,4.906666666666667
14,4.17148300720617
2,1,12,10, 0, 2, 4.00, 5.00,Sunday
7,4.908333333333334
14,4.151414800348054
2,1,12,10, 0, 2, 5.00, 6.00,Sunday
7,4.91
14,4.133683229660332
2,1,12,10, 0, 2, 6.00, 7.00,Sunday
7,4.911666666666666
14,4.1180444227042035
2,1,12,10, 0, 2, 7.00, 8.00,Sunday
7,4.913333333333334
14,4.104310375662039
2,1,12,10, 0, 2, 8.00, 9.00,Sunday
7,4.915
14,4.092299543301047
2,1,12,10, 0, 2, 9.00,10.00,Sunday
7,4.916666666666667
14,4.081832816580482
2,1,12,10, 0, 2,10.00,11.00,Sunday
7,4.918333333333334
14,4.072740506995056
2,1,12,10, 0, 2,11.00,12.00,Sunday
7,4.92
14,4.064867287637957
2,1,12,10, 0, 2,12.00,13.00,Sunday
7,4.921666666666667
14,4.058073530290733
2,1,12,10, 0, 2,13.00,14.00,Sunday
7,4.923333333333334
14,4.052234598262714
2,1,12,10, 0, 2,14.00,15.00,Sunday
7,4.925000000000001
14,4.047239486141412
2,1,12,10, 0, 2,15.00,16.00,Sunday
7,4.926666666666667
14,4.042989447848904
2,1,12,10, 0, 2,16.00,17.00,Sunday
7,4.928333333333334
14,4.0393967733426726
2,1,12,10, 0, 2,17.00,18.00,Sunday
7,4.93
14,4.036383697417436
2,1,12,10, 0, 2,18.00,19.00,Sunday
7,4.931666666666667
14,4.033881400814519
2,1,12,10, 0, 2,19.00,20.00,Sunday
7,4.933333333333334
14,4.031829083056602
2,1,12,10, 0, 2,20.00,21.00,Sunday
7,4.9350000000000005
14,4.03017310288705
2,1,12,10, 0, 2,21.00,22.00,Sunday
7,4.9366666666666665
14,4.028866188086217
2,1,12,10, 0, 2,22.00,23.00,Sunday
7,4.9383333333333335
14,4.02786671592756
2,1,12,10, 0, 2,23.00,24.00,Sunday
7,4.9399999999999995
14,4.02713806315378
2,1,12,10, 0, 2,24.00,25.00,Sunday
7,4.941666666666666
14,4.026648022306861
2,1,12,10, 0, 2,25.00,26.00,Sunday
7,4.943333333333333
14,4.026368280048568
2,1,12,10, 0, 2,26.00,27.00,Sunday
7,4.945
14,4.026273952588432
2,1,12,10, 0, 2,27.00,28.00,Sunday
7,4.946666666666667
14,4.026343173220829
2,1,12,10, 0, 2,28.00,29.00,Sunday
7,4.948333333333333
14,4.026556727070902
2,1,12,10, 0, 2,29.00,30.00,Sunday
7,4.95
14,4.026897728360073
2,1,12,10, 0, 2,30.00,31.00,Sunday
7,4.951666666666666
14,4.027351335777874
2,1,12,10, 0, 2,31.00,32.00,Sunday
7,4.953333333333333
14,4.027904501859509
2,1,12,10, 0, 2,32.00,33.00,Sunday
7,4.955
14,4.028545752599758
2,1,12,10, 0, 2,33.00,34.00,Sunday
7,4.956666666666667
14,4.029264993869865
2,1,12,10, 0, 2,34.00,35.00,Sunday
7,4.958333333333334
14,4.030049525855322
2,1,12,10, 0, 2,35.00,36.00,Sunday
7,4.96
14,4.030891390145483
2,1,12,10, 0, 2,36.00,37.00,Sunday
7,4.961666666666667
14,4.031785542056728
2,1,12,10, 0, 2,37.00,38.00,Sunday
7,4.963333333333333
14,4.032727790923078
2,1,12,10, 0, 2,38.00,39.00,Sunday
7,4.965
14,4.033713778788432
2,1,12,10, 0, 2,39.00,40.00,Sunday
7,4.966666666666667
14,4.034739050319672
2,1,12,10, 0, 2,40.00,41.00,Sunday
7,4.968333333333334
14,4.035799358967649
2,1,12,10, 0, 2,41.00,42.00,Sunday
7,4.970000000000001
14,4.03689085655314
2,1,12,10, 0, 2,42.00,43.00,Sunday
7,4.971666666666667
14,4.038010137825706
2,1,12,10, 0, 2,43.00,44.00,Sunday
7,4.973333333333334
14,4.039154207029623
2,1,12,10, 0, 2,44.00,45.00,Sunday
7,4.975
14,4.040320422833477
2,1,12,10, 0, 2,45.00,46.00,Sunday
7,4.976666666666667
14,4.041506447411139
2,1,12,10, 0, 2,46.00,47.00,Sunday
7,4.9783333333333335
14,4.042710205523949
2,1,12,10, 0, 2,47.00,48.00,Sunday
7,4.9799999999999995
14,4.043934496461478
2,1,12,10, 0, 2,48.00,49.00,Sunday
7,4.9816666666666665
14,4.045177655890709
2,1,12,10, 0, 2,49.00,50.00,Sunday
7,4.983333333333333
14,4.046435860921213
2,1,12,10, 0, 2,50.00,51.00,Sunday
7,4.985
14,4.047705530498377
2,1,12,10, 0, 2,51.00,52.00,Sunday
7,4.986666666666667
14,4.04898436135969
2,1,12,10, 0, 2,52.00,53.00,Sunday
7,4.988333333333333
14,4.050271056223648
2,1,12,10, 0, 2,53.00,54.00,Sunday
7,4.99
14,4.051564820616595
2,1,12,10, 0, 2,54.00,55.00,Sunday
7,4.991666666666666
14,4.052865040305404
2,1,12,10, 0, 2,55.00,56.00,Sunday
7,4.993333333333333
14,4.054171153171128
2,1,12,10, 0, 2,56.00,57.00,Sunday
7,4.995
14,4.055482623994682
2,1,12,10, 0, 2,57.00,58.00,Sunday
7,4.996666666666666
14,4.056798951200685
2,1,12,10, 0, 2,58.00,59.00,Sunday
7,4.998333333333333
14,4.058119674391738
2,1,12,10, 0, 2,59.00,60.00,Sunday
7,5.0
14,4.059444375822063
2,1,12,10, 0, 3, 0.00, 1.00,Sunday
7,5.001666666666666
14,4.060741367665347
2,1,12,10, 0, 3, 1.00, 2.00,Sunday
7,5.003333333333333
14,4.06194829740362
2,1,12,10, 0, 3, 2.00, 3.00,Sunday
7,5.005
14,4.063031632366592
2,1,12,10, 0, 3, 3.00, 4.00,Sunday
7,5.006666666666667
14,4.063989035015041
2,1,12,10, 0, 3, 4.00, 5.00,Sunday
7,5.008333333333333
14,4.064833834283723
2,1,12,10, 0, 3, 5.00, 6.00,Sunday
7,5.01
14,4.065582826125308
2,1,12,10, 0, 3, 6.00, 7.00,Sunday
7,5.011666666666666
14,4.066250963740284
2,1,12,10, 0, 3, 7.00, 8.00,Sunday
7,5.013333333333334
14,4.066848046573585
2,1,12,10, 0, 3, 8.00, 9.00,Sunday
7,5.015
14,4.067383865981206
2,1,12,10, 0, 3, 9.00,10.00,Sunday
7,5.016666666666667
14,4.067867774730715
2,1,12,10, 0, 3,10.00,11.00,Sunday
7,5.018333333333333
14,4.068307924321251
2,1,12,10, 0, 3,11.00,12.00,Sunday
7,5.02
14,4.068710969071915
2,1,12,10, 0, 3,12.00,13.00,Sunday
7,5.0216666666666665
14,4.0690823210421545
2,1,12,10, 0, 3,13.00,14.00,Sunday
7,5.023333333333333
14,4.069425114366423
2,1,12,10, 0, 3,14.00,15.00,Sunday
7,5.025
14,4.069741813817836
2,1,12,10, 0, 3,15.00,16.00,Sunday
7,5.026666666666667
14,4.070035070497356
2,1,12,10, 0, 3,16.00,17.00,Sunday
7,5.028333333333333
14,4.070307794938641
2,1,12,10, 0, 3,17.00,18.00,Sunday
7,5.029999999999999
14,4.0705628770295785
2,1,12,10, 0, 3,18.00,19.00,Sunday
7,5.031666666666666
14,4.070802961254251
2,1,12,10, 0, 3,19.00,20.00,Sunday
7,5.033333333333333
14,4.071030362314705
2,1,12,10, 0, 3,20.00,21.00,Sunday
7,5.035
14,4.07124707315297
2,1,12,10, 0, 3,21.00,22.00,Sunday
7,5.036666666666666
14,4.071454807301709
2,1,12,10, 0, 3,22.00,23.00,Sunday
7,5.038333333333334
14,4.071655043475073
2,1,12,10, 0, 3,23.00,24.00,Sunday
7,5.04
14,4.071849062170944
2,1,12,10, 0, 3,24.00,25.00,Sunday
7,5.041666666666666
14,4.072037974224137
2,1,12,10, 0, 3,25.00,26.00,Sunday
7,5.043333333333333
14,4.072222743746288
2,1,12,10, 0, 3,26.00,27.00,Sunday
7,5.045
14,4.0724042074177405
2,1,12,10, 0, 3,27.00,28.00,Sunday
7,5.046666666666667
14,4.072583091185684
2,1,12,10, 0, 3,28.00,29.00,Sunday
7,5.048333333333333
14,4.072760024851164
2,1,12,10, 0, 3,29.00,30.00,Sunday
7,5.05
14,4.07293555479852
2,1,12,10, 0, 3,30.00,31.00,Sunday
7,5.051666666666667
14,4.07311015506471
2,1,12,10, 0, 3,31.00,32.00,Sunday
7,5.053333333333333
14,4.07328423694021
2,1,12,10, 0, 3,32.00,33.00,Sunday
7,5.055
14,4.073458157287122
2,1,12,10, 0, 3,33.00,34.00,Sunday
7,5.056666666666667
14,4.073632225744963
2,1,12,10, 0, 3,34.00,35.00,Sunday
7,5.058333333333334
14,4.073806710974441
2,1,12,10, 0, 3,35.00,36.00,Sunday
7,5.06
14,4.073981846069032
2,1,12,10, 0, 3,36.00,37.00,Sunday
7,5.0616666666666665
14,4.074157833246248
2,1,12,10, 0, 3,37.00,38.00,Sunday
7,5.063333333333333
14,4.074334847914731
2,1,12,10, 0, 3,38.00,39.00,Sunday
7,5.0649999999999995
14,4.074513042200506
2,1,12,10, 0, 3,39.00,40.00,Sunday
7,5.066666666666666
14,4.074692548004688
2,1,12,10, 0, 3,40.00,41.00,Sunday
7,5.068333333333333
14,4.074873479655029
2,1,12,10, 0, 3,41.00,42.00,Sunday
7,5.069999999999999
14,4.075055936205561
2,1,12,10, 0, 3,42.00,43.00,Sunday
7,5.071666666666666
14,4.075240003431316
2,1,12,10, 0, 3,43.00,44.00,Sunday
7,5.073333333333332
14,4.075425755558887
2,1,12,10, 0, 3,44.00,45.00,Sunday
7,5.074999999999999
14,4.075613256767843
2,1,12,10, 0, 3,45.00,46.00,Sunday
7,5.076666666666666
14,4.075802562493796
2,1,12,10, 0, 3,46.00,47.00,Sunday
7,5.078333333333333
14,4.075993720559599
2,1,12,10, 0, 3,47.00,48.00,Sunday
7,5.08
14,4.076186772157413
2,1,12,10, 0, 3,48.00,49.00,Sunday
7,5.081666666666667
14,4.076381752701571
2,1,12,10, 0, 3,49.00,50.00,Sunday
7,5.083333333333333
14,4.07657869256951
2,1,12,10, 0, 3,50.00,51.00,Sunday
7,5.085
14,4.076777617745518
2,1,12,10, 0, 3,51.00,52.00,Sunday
7,5.086666666666666
14,4.076978550380327
2,1,12,10, 0, 3,52.00,53.00,Sunday
7,5.088333333333333
14,4.0771815092776755
2,1,12,10, 0, 3,53.00,54.00,Sunday
7,5.09
14,4.077386510317617
2,1,12,10, 0, 3,54.00,55.00,Sunday
7,5.091666666666667
14,4.077593566824886
2,1,12,10, 0, 3,55.00,56.00,Sunday
7,5.093333333333333
14,4.077802689889455
2,1,12,10, 0, 3,56.00,57.00,Sunday
7,5.095
14,4.078013888645899
2,1,12,10, 0, 3,57.00,58.00,Sunday
7,5.096666666666667
14,4.078227170516737
2,1,12,10, 0, 3,58.00,59.00,Sunday
7,5.098333333333334
14,4.07844254142456
2,1,12,10, 0, 3,59.00,60.00,Sunday
7,5.1
14,4.078660005977259
2,1,12,10, 0, 4, 0.00, 1.00,Sunday
7,5.098333333333333
14,4.074230207525808
2,1,12,10, 0, 4, 1.00, 2.00,Sunday
7,5.096666666666667
14,4.06607582869758
2,1,12,10, 0, 4, 2.00, 3.00,Sunday
7,5.095
14,4.062829123947103
2,1,12,10, 0, 4, 3.00, 4.00,Sunday
7,5.093333333333333
14,4.062606182861204
2,1,12,10, 0, 4, 4.00, 5.00,Sunday
7,5.091666666666667
14,4.063316277168736
2,1,12,10, 0, 4, 5.00, 6.00,Sunday
7,5.09
14,4.06370089380346
2,1,12,10, 0, 4, 6.00, 7.00,Sunday
7,5.088333333333333
14,4.063338896108121
2,1,12,10, 0, 4, 7.00, 8.00,Sunday
7,5.086666666666667
14,4.062245072178164
2,1,12,10, 0, 4, 8.00, 9.00,Sunday
7,5.085
14,4.0605595725642605
2,1,12,10, 0, 4, 9.00,10.00,Sunday
7,5.083333333333333
14,4.058411154161245
2,1,12,10, 0, 4,10.00,11.00,Sunday
7,5.081666666666667
14,4.05588807323488
2,1,12,10, 0, 4,11.00,12.00,Sunday
7,5.08
14,4.0530481505905325
2,1,12,10, 0, 4,12.00,13.00,Sunday
7,5.078333333333333
14,4.049933036512111
2,1,12,10, 0, 4,13.00,14.00,Sunday
7,5.076666666666666
14,4.046576705493904
2,1,12,10, 0, 4,14.00,15.00,Sunday
7,5.074999999999999
14,4.043008799451359
2,1,12,10, 0, 4,15.00,16.00,Sunday
7,5.073333333333333
14,4.039255492157214
2,1,12,10, 0, 4,16.00,17.00,Sunday
7,5.071666666666666
14,4.0353396662935115
2,1,12,10, 0, 4,17.00,18.00,Sunday
7,5.069999999999999
14,4.031281103083266
2,1,12,10, 0, 4,18.00,19.00,Sunday
7,5.068333333333333
14,4.027096795650992
2,1,12,10, 0, 4,19.00,20.00,Sunday
7,5.066666666666666
14,4.022801316244115
2,1,12,10, 0, 4,20.00,21.00,Sunday
7,5.0649999999999995
14,4.0184071674915725
2,1,12,10, 0, 4,21.00,22.00,Sunday
7,5.063333333333333
14,4.013925087312755
2,1,12,10, 0, 4,22.00,23.00,Sunday
7,5.0616666666666665
14,4.009364304675664
2,1,12,10, 0, 4,23.00,24.00,Sunday
7,5.06
14,4.00473275385694
2,1,12,10, 0, 4,24.00,25.00,Sunday
7,5.058333333333333
14,4.000037255760527
2,1,12,10, 0, 4,25.00,26.00,Sunday
7,5.056666666666667
14,3.9952836727973673
2,1,12,10, 0, 4,26.00,27.00,Sunday
7,5.055
14,3.990477041839632
2,1,12,10, 0, 4,27.00,28.00,Sunday
7,5.053333333333333
14,3.9856216885294815
2,1,12,10, 0, 4,28.00,29.00,Sunday
7,5.051666666666666
14,3.980721325558195
2,1,12,10, 0, 4,29.00,30.00,Sunday
7,5.05
14,3.975779137142335
2,1,12,10, 0, 4,30.00,31.00,Sunday
7,5.048333333333333
14,3.9707978516333533
2,1,12,10, 0, 4,31.00,32.00,Sunday
7,5.046666666666667
14,3.965779803941185
2,1,12,10, 0, 4,32.00,33.00,Sunday
7,5.045
14,3.9607269892194656
2,1,12,10, 0, 4,33.00,34.00,Sunday
7,5.043333333333333
14,3.9556411090525723
2,1,12,10, 0, 4,34.00,35.00,Sunday
7,5.041666666666666
14,3.9505236112053894
2,1,12,10, 0, 4,35.00,36.00,Sunday
7,5.04
14,3.9453757238434166
2,1,12,10, 0, 4,36.00,37.00,Sunday
7,5.038333333333333
14,3.940198485000648
2,1,12,10, 0, 4,37.00,38.00,Sunday
7,5.036666666666667
14,3.9349927679619223
2,1,12,10, 0, 4,38.00,39.00,Sunday
7,5.035
14,3.9297593031318723
2,1,12,10, 0, 4,39.00,40.00,Sunday
7,5.033333333333333
14,3.92449869688166
2,1,12,10, 0, 4,40.00,41.00,Sunday
7,5.031666666666666
14,3.919217466801635
2,1,12,10, 0, 4,41.00,42.00,Sunday
7,5.03
14,3.9139221153788117
2,1,12,10, 0, 4,42.00,43.00,Sunday
7,5.028333333333333
14,3.908616090130649
2,1,12,10, 0, 4,43.00,44.00,Sunday
7,5.026666666666666
14,3.9032996339691097
2,1,12,10, 0, 4,44.00,45.00,Sunday
7,5.025
14,3.897971309773359
2,1,12,10, 0, 4,45.00,46.00,Sunday
7,5.023333333333333
14,3.8926292581241473
2,1,12,10, 0, 4,46.00,47.00,Sunday
7,5.0216666666666665
14,3.887271777919061
2,1,12,10, 0, 4,47.00,48.00,Sunday
7,5.02
14,3.881897455949535
2,1,12,10, 0, 4,48.00,49.00,Sunday
7,5.018333333333333
14,3.876505120154532
2,1,12,10, 0, 4,49.00,50.00,Sunday
7,5.016666666666667
14,3.871093767374161
2,1,12,10, 0, 4,50.00,51.00,Sunday
7,5.015
14,3.86566251320466
2,1,12,10, 0, 4,51.00,52.00,Sunday
7,5.013333333333334
14,3.86021056449393
2,1,12,10, 0, 4,52.00,53.00,Sunday
7,5.011666666666666
14,3.8547372041727206
2,1,12,10, 0, 4,53.00,54.00,Sunday
7,5.01
14,3.849241780808987
2,1,12,10, 0, 4,54.00,55.00,Sunday
7,5.008333333333333
14,3.84372369961317
2,1,12,10, 0, 4,55.00,56.00,Sunday
7,5.006666666666667
14,3.83818241413576
2,1,12,10, 0, 4,56.00,57.00,Sunday
7,5.005
14,3.8326174187420863
2,1,12,10, 0, 4,57.00,58.00,Sunday
7,5.003333333333333
14,3.8270282420068016
2,1,12,10, 0, 4,58.00,59.00,Sunday
7,5.001666666666666
14,3.8214144410364552
2,1,12,10, 0, 4,59.00,60.00,Sunday
7,5.0
14,3.815775596630039
2,1,12,10, 0, 5, 0.00, 1.00,Sunday
7,4.999999999999999
14,3.81033012341509
2,1,12,10, 0, 5, 1.00, 2.00,Sunday
7,5.0
14,3.8055807043441567
2,1,12,10, 0, 5, 2.00, 3.00,Sunday
7,5.0
14,3.801894466598175
2,1,12,10, 0, 5, 3.00, 4.00,Sunday
7,5.0
14,3.799351617218976
2,1,12,10, 0, 5, 4.00, 5.00,Sunday
7,5.0
14,3.797854717535777
2,1,12,10, 0, 5, 5.00, 6.00,Sunday
7,5.0
14,3.7972511010173657
2,1,12,10, 0, 5, 6.00, 7.00,Sunday
7,4.999999999999999
14,3.797397124970433
2,1,12,10, 0, 5, 7.00, 8.00,Sunday
7,5.000000000000001
14,3.798175945394634
2,1,12,10, 0, 5, 8.00, 9.00,Sunday
7,5.0
14,3.799494838528271
2,1,12,10, 0, 5, 9.00,10.00,Sunday
7,5.0
14,3.8012783512700237
2,1,12,10, 0, 5,10.00,11.00,Sunday
7,5.0
14,3.803455235054383
2,1,12,10, 0, 5,11.00,12.00,Sunday
7,5.0
14,3.805970561047153
2,1,12,10, 0, 5,12.00,13.00,Sunday
7,5.0
14,3.8087812116298694
2,1,12,10, 0, 5,13.00,14.00,Sunday
7,5.0
14,3.811851549736857
2,1,12,10, 0, 5,14.00,15.00,Sunday
7,5.0
14,3.8151499504937787
2,1,12,10, 0, 5,15.00,16.00,Sunday
7,5.0
14,3.8186481053067687
2,1,12,10, 0, 5,16.00,17.00,Sunday
7,5.0
14,3.822321117177083
2,1,12,10, 0, 5,17.00,18.00,Sunday
7,5.0
14,3.8261577619618636
2,1,12,10, 0, 5,18.00,19.00,Sunday
7,5.0
14,3.830140157430481
2,1,12,10, 0, 5,19.00,20.00,Sunday
7,5.0
14,3.834247839693107
2,1,12,10, 0, 5,20.00,21.00,Sunday
7,5.0
14,3.8384618993321684
2,1,12,10, 0, 5,21.00,22.00,Sunday
7,5.0
14,3.842767915055601
2,1,12,10, 0, 5,22.00,23.00,Sunday
7,5.0
14,3.8471553069984883
2,1,12,10, 0, 5,23.00,24.00,Sunday
7,5.0
14,3.8516159208381517
2,1,12,10, 0, 5,24.00,25.00,Sunday
7,5.0
14,3.856143027905197
2,1,12,10, 0, 5,25.00,26.00,Sunday
7,5.0
14,3.8607308406988388
2,1,12,10, 0, 5,26.00,27.00,Sunday
7,5.0
14,3.865374320697159
2,1,12,10, 0, 5,27.00,28.00,Sunday
7,5.0
14,3.870069091262834
2,1,12,10, 0, 5,28.00,29.00,Sunday
7,5.0
14,3.8748113695411757
2,1,12,10, 0, 5,29.00,30.00,Sunday
7,5.0
14,3.8795978960147686
2,1,12,10, 0, 5,30.00,31.00,Sunday
7,5.0
14,3.8844258643700105
2,1,12,10, 0, 5,31.00,32.00,Sunday
7,5.0
14,3.8892928572919794
2,1,12,10, 0, 5,32.00,33.00,Sunday
7,5.0
14,3.8941967907901915
2,1,12,10, 0, 5,33.00,34.00,Sunday
7,5.0
14,3.8991358670025416
2,1,12,10, 0, 5,34.00,35.00,Sunday
7,5.0
14,3.9041085343104838
2,1,12,10, 0, 5,35.00,36.00,Sunday
7,5.0
14,3.909113453477401
2,1,12,10, 0, 5,36.00,37.00,Sunday
7,5.0
14,3.914149468752152
2,1,12,10, 0, 5,37.00,38.00,Sunday
7,5.0
14,3.9192155831292106
2,1,12,10, 0, 5,38.00,39.00,Sunday
7,5.0
14,3.9243109371348637
2,1,12,10, 0, 5,39.00,40.00,Sunday
7,5.0
14,3.9294347906236893
2,1,12,10, 0, 5,40.00,41.00,Sunday
7,5.0
14,3.9345865071488837
2,1,12,10, 0, 5,41.00,42.00,Sunday
7,5.0
14,3.9397655405326746
2,1,12,10, 0, 5,42.00,43.00,Sunday
7,5.0
14,3.9449714233165456
2,1,12,10, 0, 5,43.00,44.00,Sunday
7,5.0
14,3.9502037568178325
2,1,12,10, 0, 5,44.00,45.00,Sunday
7,5.0
14,3.9554622025599495
2,1,12,10, 0, 5,45.00,46.00,Sunday
7,5.0
14,3.960746474878072
2,1,12,10, 0, 5,46.00,47.00,Sunday
7,5.0
14,3.966056334531568
2,1,12,10, 0, 5,47.00,48.00,Sunday
7,5.0
14,3.971391583179647
2,1,12,10, 0, 5,48.00,49.00,Sunday
7,5.0
14,3.9767520585977287
2,1,12,10, 0, 5,49.00,50.00,Sunday
7,5.0
14,3.982137630530044
2,1,12,10, 0, 5,50.00,51.00,Sunday
7,5.0
14,3.9875481970892737
2,1,12,10, 0, 5,51.00,52.00,Sunday
7,5.0
14,3.9929836816270914
2,1,12,10, 0, 5,52.00,53.00,Sunday
7,5.0
14,3.998444030010385
2,1,12,10, 0, 5,53.00,54.00,Sunday
7,5.0
14,4.003929208247559
2,1,12,10, 0, 5,54.00,55.00,Sunday
7,5.0
14,4.009439200417096
2,1,12,10, 0, 5,55.00,56.00,Sunday
7,5.0
14,4.014974006857563
2,1,12,10, 0, 5,56.00,57.00,Sunday
7,5.0
14,4.02053364258411
2,1,12,10, 0, 5,57.00,58.00,Sunday
7,5.0
14,4.026118135901446
2,1,12,10, 0, 5,58.00,59.00,Sunday
7,5.0
14,4.0317275271873765
2,1,12,10, 0, 5,59.00,60.00,Sunday
7,5.0
14,4.037361867824794
2,1,12,10, 0, 6, 0.00, 1.00,Sunday
7,5.003333333333333
14,4.042843758799495
2,1,12,10, 0, 6, 1.00, 2.00,Sunday
7,5.006666666666666
14,4.047906294415172
2,1,12,10, 0, 6, 2.00, 3.00,Sunday
7,5.01
14,4.052524115490321
2,1,12,10, 0, 6, 3.00, 4.00,Sunday
7,5.013333333333334
14,4.056760389932609
2,1,12,10, 0, 6, 4.00, 5.00,Sunday
7,5.016666666666667
14,4.060685371962494
2,1,12,10, 0, 6, 5.00, 6.00,Sunday
7,5.02
14,4.064351517793792
2,1,12,10, 0, 6, 6.00, 7.00,Sunday
7,5.0233333333333325
14,4.067795210838695
2,1,12,10, 0, 6, 7.00, 8.00,Sunday
7,5.026666666666667
14,4.071051077405991
2,1,12,10, 0, 6, 8.00, 9.00,Sunday
7,5.03
14,4.074149403649353
2,1,12,10, 0, 6, 9.00,10.00,Sunday
7,5.033333333333333
14,4.077114289168859
2,1,12,10, 0, 6,10.00,11.00,Sunday
7,5.036666666666666
14,4.079963816969423
2,1,12,10, 0, 6,11.00,12.00,Sunday
7,5.04
14,4.082712091384352
2,1,12,10, 0, 6,12.00,13.00,Sunday
7,5.043333333333333
14,4.085370892384634
2,1,12,10, 0, 6,13.00,14.00,Sunday
7,5.046666666666667
14,4.087950527459717
2,1,12,10, 0, 6,14.00,15.00,Sunday
7,5.05
14,4.090460164575155
2,1,12,10, 0, 6,15.00,16.00,Sunday
7,5.053333333333334
14,4.0929079585315025
2,1,12,10, 0, 6,16.00,17.00,Sunday
7,5.056666666666667
14,4.095301133025507
2,1,12,10, 0, 6,17.00,18.00,Sunday
7,5.0600000000000005
14,4.097646067295802
2,1,12,10, 0, 6,18.00,19.00,Sunday
7,5.0633333333333335
14,4.099948388304484
2,1,12,10, 0, 6,19.00,20.00,Sunday
7,5.066666666666667
14,4.102213059752224
2,1,12,10, 0, 6,20.00,21.00,Sunday
7,5.07
14,4.104444462461545
2,1,12,10, 0, 6,21.00,22.00,Sunday
7,5.073333333333333
14,4.106646464829039
2,1,12,10, 0, 6,22.00,23.00,Sunday
7,5.076666666666667
14,4.108822484167979
2,1,12,10, 0, 6,23.00,24.00,Sunday
7,5.08
14,4.110975540283054
2,1,12,10, 0, 6,24.00,25.00,Sunday
7,5.083333333333333
14,4.11310830246962
2,1,12,10, 0, 6,25.00,26.00,Sunday
7,5.086666666666666
14,4.1152231308615566
2,1,12,10, 0, 6,26.00,27.00,Sunday
7,5.09
14,4.117322112849817
2,1,12,10, 0, 6,27.00,28.00,Sunday
7,5.093333333333334
14,4.1194070951683175
2,1,12,10, 0, 6,28.00,29.00,Sunday
7,5.096666666666667
14,4.121479712163103
2,1,12,10, 0, 6,29.00,30.00,Sunday
7,5.1
14,4.123541410700152
2,1,12,10, 0, 6,30.00,31.00,Sunday
7,5.1033333333333335
14,4.125593472114603
2,1,12,10, 0, 6,31.00,32.00,Sunday
7,5.106666666666667
14,4.127637031556535
2,1,12,10, 0, 6,32.00,33.00,Sunday
7,5.11
14,4.129673095045389
2,1,12,10, 0, 6,33.00,34.00,Sunday
7,5.113333333333333
14,4.131702554507636
2,1,12,10, 0, 6,34.00,35.00,Sunday
7,5.116666666666667
14,4.133726201038583
2,1,12,10, 0, 6,35.00,36.00,Sunday
7,5.12
14,4.135744736599996
2,1,12,10, 0, 6,36.00,37.00,Sunday
7,5.123333333333333
14,4.137758784339876
2,1,12,10, 0, 6,37.00,38.00,Sunday
7,5.126666666666667
14,4.139768897698234
2,1,12,10, 0, 6,38.00,39.00,Sunday
7,5.130000000000001
14,4.141775568442998
2,1,12,10, 0, 6,39.00,40.00,Sunday
7,5.133333333333334
14,4.143779233763094
2,1,12,10, 0, 6,40.00,41.00,Sunday
7,5.136666666666667
14,4.145780282530371
2,1,12,10, 0, 6,41.00,42.00,Sunday
7,5.14
14,4.147779060828746
2,1,12,10, 0, 6,42.00,43.00,Sunday
7,5.1433333333333335
14,4.149775876837399
2,1,12,10, 0, 6,43.00,44.00,Sunday
7,5.1466666666666665
14,4.151771005144251
2,1,12,10, 0, 6,44.00,45.00,Sunday
7,5.15
14,4.153764690557006
2,1,12,10, 0, 6,45.00,46.00,Sunday
7,5.153333333333334
14,4.1557571514709
2,1,12,10, 0, 6,46.00,47.00,Sunday
7,5.156666666666666
14,4.15774858284562
2,1,12,10, 0, 6,47.00,48.00,Sunday
7,5.16
14,4.159739158837391
2,1,12,10, 0, 6,48.00,49.00,Sunday
7,5.163333333333334
14,4.161729035126579
2,1,12,10, 0, 6,49.00,50.00,Sunday
7,5.166666666666667
14,4.163718350976719
2,1,12,10, 0, 6,50.00,51.00,Sunday
7,5.17
14,4.165707231056444
2,1,12,10, 0, 6,51.00,52.00,Sunday
7,5.173333333333334
14,4.167695787052168
2,1,12,10, 0, 6,52.00,53.00,Sunday
7,5.176666666666668
14,4.169684119095949
2,1,12,10, 0, 6,53.00,54.00,Sunday
7,5.180000000000001
14,4.171672317030234
2,1,12,10, 0, 6,54.00,55.00,Sunday
7,5.183333333333334
14,4.173660461528478
2,1,12,10, 0, 6,55.00,56.00,Sunday
7,5.1866666666666665
14,4.175648625088354
2,1,12,10, 0, 6,56.00,57.00,Sunday
7,5.1899999999999995
14,4.177636872912525
2,1,12,10, 0, 6,57.00,58.00,Sunday
7,5.193333333333334
14,4.1796252636899585
2,1,12,10, 0, 6,58.00,59.00,Sunday
7,5.196666666666667
14,4.181613850289416
2,1,12,10, 0, 6,59.00,60.00,Sunday
7,5.2
14,4.18360268037514
2,1,12,10, 0, 7, 0.00, 1.00,Sunday
7,5.208333333333333
14,4.185682410051133
2,1,12,10, 0, 7, 1.00, 2.00,Sunday
7,5.216666666666668
14,4.188097205113148
2,1,12,10, 0, 7, 2.00, 3.00,Sunday
7,5.225
14,4.191072382305325
2,1,12,10, 0, 7, 3.00, 4.00,Sunday
7,5.233333333333333
14,4.194682044902058
2,1,12,10, 0, 7, 4.00, 5.00,Sunday
7,5.241666666666666
14,4.198894980570991
2,1,12,10, 0, 7, 5.00, 6.00,Sunday
7,5.250000000000001
14,4.20364049654688
2,1,12,10, 0, 7, 6.00, 7.00,Sunday
7,5.258333333333334
14,4.208846262992704
2,1,12,10, 0, 7, 7.00, 8.00,Sunday
7,5.266666666666667
14,4.2144506080690345
2,1,12,10, 0, 7, 8.00, 9.00,Sunday
7,5.275
14,4.220402741235837
2,1,12,10, 0, 7, 9.00,10.00,Sunday
7,5.283333333333334
14,4.226659955561971
2,1,12,10, 0, 7,10.00,11.00,Sunday
7,5.291666666666667
14,4.233185309552795
2,1,12,10, 0, 7,11.00,12.00,Sunday
7,5.300000000000001
14,4.239946318164571
2,1,12,10, 0, 7,12.00,13.00,Sunday
7,5.308333333333334
14,4.246914278590299
2,1,12,10, 0, 7,13.00,14.00,Sunday
7,5.316666666666666
14,4.254063853643173
2,1,12,10, 0, 7,14.00,15.00,Sunday
7,5.325
14,4.2613727255578215
2,1,12,10, 0, 7,15.00,16.00,Sunday
7,5.333333333333334
14,4.268821266782142
2,1,12,10, 0, 7,16.00,17.00,Sunday
7,5.341666666666667
14,4.276392227826155
2,1,12,10, 0, 7,17.00,18.00,Sunday
7,5.35
14,4.2840704514699155
2,1,12,10, 0, 7,18.00,19.00,Sunday
7,5.358333333333333
14,4.291842617909991
2,1,12,10, 0, 7,19.00,20.00,Sunday
7,5.366666666666667
14,4.299697020319176
2,1,12,10, 0, 7,20.00,21.00,Sunday
7,5.375
14,4.3076233678801135
2,1,12,10, 0, 7,21.00,22.00,Sunday
7,5.383333333333333
14,4.315612612899468
2,1,12,10, 0, 7,22.00,23.00,Sunday
7,5.3916666666666675
14,4.323656798948628
2,1,12,10, 0, 7,23.00,24.00,Sunday
7,5.4
14,4.331748927445784
2,1,12,10, 0, 7,24.00,25.00,Sunday
7,5.408333333333333
14,4.339882840475625
2,1,12,10, 0, 7,25.00,26.00,Sunday
7,5.416666666666667
14,4.348053117924261
2,1,12,10, 0, 7,26.00,27.00,Sunday
7,5.425000000000001
14,4.356254987226877
2,1,12,10, 0, 7,27.00,28.00,Sunday
7,5.433333333333334
14,4.36448424421438
2,1,12,10, 0, 7,28.00,29.00,Sunday
7,5.441666666666666
14,4.3727371837146265
2,1,12,10, 0, 7,29.00,30.00,Sunday
7,5.45
14,4.381010538718445
2,1,12,10, 0, 7,30.00,31.00,Sunday
7,5.458333333333334
14,4.389301427060686
2,1,12,10, 0, 7,31.00,32.00,Sunday
7,5.466666666666667
14,4.397607304691485
2,1,12,10, 0, 7,32.00,33.00,Sunday
7,5.475
14,4.405925924724242
2,1,12,10, 0, 7,33.00,34.00,Sunday
7,5.483333333333333
14,4.414255301545711
2,1,12,10, 0, 7,34.00,35.00,Sunday
7,5.491666666666667
14,4.422602271340632
2,1,12,10, 0, 7,35.00,36.00,Sunday
7,5.5
14,4.430974218448613
2,1,12,10, 0, 7,36.00,37.00,Sunday
7,5.508333333333333
14,4.4393746805800465
2,1,12,10, 0, 7,37.00,38.00,Sunday
7,5.516666666666667
14,4.447802764760638
2,1,12,10, 0, 7,38.00,39.00,Sunday
7,5.525
14,4.456255243210369
2,1,12,10, 0, 7,39.00,40.00,Sunday
7,5.533333333333333
14,4.464728361791814
2,1,12,10, 0, 7,40.00,41.00,Sunday
7,5.541666666666667
14,4.4732186891116
2,1,12,10, 0, 7,41.00,42.00,Sunday
7,5.55
14,4.481723313039274
2,1,12,10, 0, 7,42.00,43.00,Sunday
7,5.558333333333334
14,4.490239777277343
2,1,12,10, 0, 7,43.00,44.00,Sunday
7,5.566666666666666
14,4.498765975276002
2,1,12,10, 0, 7,44.00,45.00,Sunday
7,5.575
14,4.507300071758925
2,1,12,10, 0, 7,45.00,46.00,Sunday
7,5.583333333333333
14,4.515840454935299
2,1,12,10, 0, 7,46.00,47.00,Sunday
7,5.591666666666667
14,4.524385706337106
2,1,12,10, 0, 7,47.00,48.00,Sunday
7,5.6000000000000005
14,4.532934578187654
2,1,12,10, 0, 7,48.00,49.00,Sunday
7,5.608333333333333