Program Version,EnergyPlus, Version 25.1.0-1c11a3d85f, YMD=2026.04.10 14:05
1,5,Environment Title[],Latitude[deg],Longitude[deg],Time Zone[],Elevation[m]
2,8,Day of Simulation[],Month[],Day of Month[],DST Indicator[1=yes 0=no],Hour[],StartMinute[],EndMinute[],DayType
3,5,Cumulative Day of Simulation[],Month[],Day of Month[],DST Indicator[1=yes 0=no],DayType  ! When Daily Report Variables Requested
4,2,Cumulative Days of Simulation[],Month[]  ! When Monthly Report Variables Requested
5,1,Cumulative Days of Simulation[] ! When Run Period Report Variables Requested
6,1,Calendar Year of Simulation[] ! When Annual Report Variables Requested
7,1,Environment,Site Outdoor Air Drybulb Temperature [C] !TimeStep
8,1,WALL_N,Surface Inside Face Temperature [C] !Hourly
9,1,WALL_S,Surface Inside Face Temperature [C] !Hourly
10,1,WALL_E,Surface Inside Face Temperature [C] !Hourly
11,1,WALL_W,Surface Inside Face Temperature [C] !Hourly
12,1,FLOOR,Surface Inside Face Temperature [C] !Hourly
13,1,ROOF,Surface Inside Face Temperature [C] !Hourly
14,1,ROOF_GLASS,Surface Inside Face Temperature [C] !Hourly
15,1,WALL_N_GLASS,Surface Inside Face Temperature [C] !Hourly
16,1,WALL_S_GLASS,Surface Inside Face Temperature [C] !Hourly
17,1,WALL_E_GLASS,Surface Inside Face Temperature [C] !Hourly
18,1,WALL_W_GLASS,Surface Inside Face Temperature [C] !Hourly
19,1,GREENHOUSE,Zone Mean Air Temperature [C] !TimeStep
End of Data Dictionary
1,RUN PERIOD 1,  36.85,  -2.36,   1.00,  21.00
2,1, 7, 1, 0, 1, 0.00, 1.00,Sunday
7,22.716666666666665
19,26.04416089521198
2,1, 7, 1, 0, 1, 1.00, 2.00,Sunday
7,22.73333333333333
19,26.03446730948889
2,1, 7, 1, 0, 1, 2.00, 3.00,Sunday
7,22.749999999999996
19,26.02227569151301
2,1, 7, 1, 0, 1, 3.00, 4.00,Sunday
7,22.766666666666666
19,26.00767195370356
2,1, 7, 1, 0, 1, 4.00, 5.00,Sunday
7,22.783333333333335
19,25.991032066608614
2,1, 7, 1, 0, 1, 5.00, 6.00,Sunday
7,22.8
19,25.972788851243376
2,1, 7, 1, 0, 1, 6.00, 7.00,Sunday
7,22.816666666666666
19,25.953319690025758
2,1, 7, 1, 0, 1, 7.00, 8.00,Sunday
7,22.833333333333332
19,25.932918156644877
2,1, 7, 1, 0, 1, 8.00, 9.00,Sunday
7,22.849999999999998
19,25.911804594433875
2,1, 7, 1, 0, 1, 9.00,10.00,Sunday
7,22.866666666666667
19,25.890143855474133
2,1, 7, 1, 0, 1,10.00,11.00,Sunday
7,22.883333333333333
19,25.868059806441284
2,1, 7, 1, 0, 1,11.00,12.00,Sunday
7,22.9
19,25.845645837119513
2,1, 7, 1, 0, 1,12.00,13.00,Sunday
7,22.916666666666664
19,25.822972313275315
2,1, 7, 1, 0, 1,13.00,14.00,Sunday
7,22.933333333333334
19,25.800092044198284
2,1, 7, 1, 0, 1,14.00,15.00,Sunday
7,22.95
19,25.777044725343142
2,1, 7, 1, 0, 1,15.00,16.00,Sunday
7,22.96666666666667
19,25.753859315057287
2,1, 7, 1, 0, 1,16.00,17.00,Sunday
7,22.983333333333334
19,25.730557532089655
2,1, 7, 1, 0, 1,17.00,18.00,Sunday
7,23.0
19,25.707155856206626
2,1, 7, 1, 0, 1,18.00,19.00,Sunday
7,23.016666666666666
19,25.683666667402832
2,1, 7, 1, 0, 1,19.00,20.00,Sunday
7,23.033333333333335
19,25.660099169962372
2,1, 7, 1, 0, 1,20.00,21.00,Sunday
7,23.05
19,25.636459626655636
2,1, 7, 1, 0, 1,21.00,22.00,Sunday
7,23.066666666666663
19,25.61275314067437
2,1, 7, 1, 0, 1,22.00,23.00,Sunday
7,23.083333333333336
19,25.5889832110871
2,1, 7, 1, 0, 1,23.00,24.00,Sunday
7,23.1
19,25.56515235010389
2,1, 7, 1, 0, 1,24.00,25.00,Sunday
7,23.116666666666667
19,25.54126285471649
2,1, 7, 1, 0, 1,25.00,26.00,Sunday
7,23.133333333333333
19,25.51731632760377
2,1, 7, 1, 0, 1,26.00,27.00,Sunday
7,23.15
19,25.493313523291334
2,1, 7, 1, 0, 1,27.00,28.00,Sunday
7,23.166666666666664
19,25.469254835608396
2,1, 7, 1, 0, 1,28.00,29.00,Sunday
7,23.18333333333333
19,25.445140926694137
2,1, 7, 1, 0, 1,29.00,30.00,Sunday
7,23.2
19,25.42097252125531
2,1, 7, 1, 0, 1,30.00,31.00,Sunday
7,23.21666666666667
19,25.396749631897237
2,1, 7, 1, 0, 1,31.00,32.00,Sunday
7,23.233333333333334
19,25.372472215521597
2,1, 7, 1, 0, 1,32.00,33.00,Sunday
7,23.25
19,25.34814015147728
2,1, 7, 1, 0, 1,33.00,34.00,Sunday
7,23.266666666666666
19,25.32375361881224
2,1, 7, 1, 0, 1,34.00,35.00,Sunday
7,23.28333333333333
19,25.299312701245814
2,1, 7, 1, 0, 1,35.00,36.00,Sunday
7,23.299999999999997
19,25.27376471180995
2,1, 7, 1, 0, 1,36.00,37.00,Sunday
7,23.316666666666666
19,25.59847590170828
2,1, 7, 1, 0, 1,37.00,38.00,Sunday
7,23.333333333333332
19,26.17461913126936
2,1, 7, 1, 0, 1,38.00,39.00,Sunday
7,23.349999999999998
19,26.8008834281371
2,1, 7, 1, 0, 1,39.00,40.00,Sunday
7,23.366666666666667
19,27.359586574979556
2,1, 7, 1, 0, 1,40.00,41.00,Sunday
7,23.383333333333333
19,27.819143705405203
2,1, 7, 1, 0, 1,41.00,42.00,Sunday
7,23.4
19,28.18900141132654
2,1, 7, 1, 0, 1,42.00,43.00,Sunday
7,23.416666666666664
19,28.487681236117645
2,1, 7, 1, 0, 1,43.00,44.00,Sunday
7,23.433333333333334
19,28.730624515654995
2,1, 7, 1, 0, 1,44.00,45.00,Sunday
7,23.45
19,28.928704234465958
2,1, 7, 1, 0, 1,45.00,46.00,Sunday
7,23.46666666666667
19,29.08976912188451
2,1, 7, 1, 0, 1,46.00,47.00,Sunday
7,23.48333333333333
19,29.220022242747962
2,1, 7, 1, 0, 1,47.00,48.00,Sunday
7,23.5
19,29.32467931000842
2,1, 7, 1, 0, 1,48.00,49.00,Sunday
7,23.516666666666666
19,29.40815275965976
2,1, 7, 1, 0, 1,49.00,50.00,Sunday
7,23.53333333333333
19,29.474252196850077
2,1, 7, 1, 0, 1,50.00,51.00,Sunday
7,23.55
19,29.52575641957178
2,1, 7, 1, 0, 1,51.00,52.00,Sunday
7,23.566666666666666
19,29.56549427013274
2,1, 7, 1, 0, 1,52.00,53.00,Sunday
7,23.583333333333332
19,29.5957910999232
2,1, 7, 1, 0, 1,53.00,54.00,Sunday
7,23.599999999999998
19,29.61844023050865
2,1, 7, 1, 0, 1,54.00,55.00,Sunday
7,23.616666666666667
19,29.634840957980092
2,1, 7, 1, 0, 1,55.00,56.00,Sunday
7,23.633333333333333
19,29.6461164097141
2,1, 7, 1, 0, 1,56.00,57.00,Sunday
7,23.65
19,29.653187486245358
2,1, 7, 1, 0, 1,57.00,58.00,Sunday
7,23.666666666666668
19,29.656815346737286
2,1, 7, 1, 0, 1,58.00,59.00,Sunday
7,23.683333333333334
19,29.657628226235175
2,1, 7, 1, 0, 1,59.00,60.00,Sunday
7,23.7
19,29.656142605981422
2,1, 7, 1, 0, 1, 0.00,60.00,Sunday
8,19.43893387504015
9,19.443951495655465
10,19.4424234897325
11,19.440450406907335
12,42.402692486743426
13,18.36633679996727
14,18.511020172269998
15,19.623551938232808
16,19.623982479203217
17,19.622710320186318
18,19.624818869023876
2,1, 7, 1, 0, 2, 0.00, 1.00,Sunday
7,23.703333333333333
19,29.652614051966648
2,1, 7, 1, 0, 2, 1.00, 2.00,Sunday
7,23.706666666666667
19,29.647710024896156
2,1, 7, 1, 0, 2, 2.00, 3.00,Sunday
7,23.709999999999997
19,29.642133563488365
2,1, 7, 1, 0, 2, 3.00, 4.00,Sunday
7,23.713333333333335
19,29.636275544719794
2,1, 7, 1, 0, 2, 4.00, 5.00,Sunday
7,23.716666666666665
19,29.630273314031843
2,1, 7, 1, 0, 2, 5.00, 6.00,Sunday
7,23.72
19,29.62415332816177
2,1, 7, 1, 0, 2, 6.00, 7.00,Sunday
7,23.723333333333333
19,29.617918600293105
2,1, 7, 1, 0, 2, 7.00, 8.00,Sunday
7,23.726666666666667
19,29.611577502183668
2,1, 7, 1, 0, 2, 8.00, 9.00,Sunday
7,23.73
19,29.605144843651395
2,1, 7, 1, 0, 2, 9.00,10.00,Sunday
7,23.733333333333334
19,29.598636879239493
2,1, 7, 1, 0, 2,10.00,11.00,Sunday
7,23.736666666666665
19,29.592068068489453
2,1, 7, 1, 0, 2,11.00,12.00,Sunday
7,23.740000000000002
19,29.585450214466796
2,1, 7, 1, 0, 2,12.00,13.00,Sunday
7,23.743333333333332
19,29.57879276357776
2,1, 7, 1, 0, 2,13.00,14.00,Sunday
7,23.746666666666663
19,29.57210334380134
2,1, 7, 1, 0, 2,14.00,15.00,Sunday
7,23.75
19,29.565388193670827
2,1, 7, 1, 0, 2,15.00,16.00,Sunday
7,23.753333333333337
19,29.558652449062198
2,1, 7, 1, 0, 2,16.00,17.00,Sunday
7,23.756666666666668
19,29.551900340949352
2,1, 7, 1, 0, 2,17.00,18.00,Sunday
7,23.759999999999998
19,29.5451353481404
2,1, 7, 1, 0, 2,18.00,19.00,Sunday
7,23.763333333333332
19,29.53836032504841
2,1, 7, 1, 0, 2,19.00,20.00,Sunday
7,23.766666666666666
19,29.53157761061356
2,1, 7, 1, 0, 2,20.00,21.00,Sunday
7,23.769999999999996
19,29.524789120122943
2,1, 7, 1, 0, 2,21.00,22.00,Sunday
7,23.77333333333333
19,29.51799642146076
2,1, 7, 1, 0, 2,22.00,23.00,Sunday
7,23.776666666666667
19,29.511200797842005
2,1, 7, 1, 0, 2,23.00,24.00,Sunday
7,23.78
19,29.50440329924356
2,1, 7, 1, 0, 2,24.00,25.00,Sunday
7,23.78333333333333
19,29.49760478455099
2,1, 7, 1, 0, 2,25.00,26.00,Sunday
7,23.786666666666665
19,29.490805956110407
2,1, 7, 1, 0, 2,26.00,27.00,Sunday
7,23.79
19,29.484007388057403
2,1, 7, 1, 0, 2,27.00,28.00,Sunday
7,23.79333333333333
19,29.47720954953899
2,1, 7, 1, 0, 2,28.00,29.00,Sunday
7,23.796666666666663
19,29.470412823741327
2,1, 7, 1, 0, 2,29.00,30.00,Sunday
7,23.799999999999997
19,29.463617523475417
2,1, 7, 1, 0, 2,30.00,31.00,Sunday
7,23.803333333333335
19,29.456823903939277
2,1, 7, 1, 0, 2,31.00,32.00,Sunday
7,23.806666666666665
19,29.45003217316666
2,1, 7, 1, 0, 2,32.00,33.00,Sunday
7,23.81
19,29.443242500580126
2,1, 7, 1, 0, 2,33.00,34.00,Sunday
7,23.813333333333333
19,29.436455023992004
2,1, 7, 1, 0, 2,34.00,35.00,Sunday
7,23.816666666666663
19,29.429669855334215
2,1, 7, 1, 0, 2,35.00,36.00,Sunday
7,23.82
19,29.422887085348137
2,1, 7, 1, 0, 2,36.00,37.00,Sunday
7,23.82333333333333
19,29.416106787421842
2,1, 7, 1, 0, 2,37.00,38.00,Sunday
7,23.826666666666668
19,29.40932902073042
2,1, 7, 1, 0, 2,38.00,39.00,Sunday
7,23.83
19,29.402553832805562
2,1, 7, 1, 0, 2,39.00,40.00,Sunday
7,23.833333333333332
19,29.395781261637865
2,1, 7, 1, 0, 2,40.00,41.00,Sunday
7,23.836666666666666
19,29.389011337396703
2,1, 7, 1, 0, 2,41.00,42.00,Sunday
7,23.839999999999996
19,29.382244083836774
2,1, 7, 1, 0, 2,42.00,43.00,Sunday
7,23.843333333333334
19,29.375479519448945
2,1, 7, 1, 0, 2,43.00,44.00,Sunday
7,23.846666666666664
19,29.3687176584011
2,1, 7, 1, 0, 2,44.00,45.00,Sunday
7,23.849999999999998
19,29.361958511307172
2,1, 7, 1, 0, 2,45.00,46.00,Sunday
7,23.85333333333333
19,29.355202085855563
2,1, 7, 1, 0, 2,46.00,47.00,Sunday
7,23.856666666666662
19,29.348448387322197
2,1, 7, 1, 0, 2,47.00,48.00,Sunday
7,23.86
19,29.341697418989718
2,1, 7, 1, 0, 2,48.00,49.00,Sunday
7,23.86333333333333
19,29.334949182488856
2,1, 7, 1, 0, 2,49.00,50.00,Sunday
7,23.866666666666667
19,29.328203678076584
2,1, 7, 1, 0, 2,50.00,51.00,Sunday
7,23.869999999999997
19,29.32146090486223
2,1, 7, 1, 0, 2,51.00,52.00,Sunday
7,23.87333333333333
19,29.314720860990686
2,1, 7, 1, 0, 2,52.00,53.00,Sunday
7,23.876666666666665
19,29.307983543790765
2,1, 7, 1, 0, 2,53.00,54.00,Sunday
7,23.879999999999995
19,29.3012489498942
2,1, 7, 1, 0, 2,54.00,55.00,Sunday
7,23.883333333333333
19,29.29451707533069
2,1, 7, 1, 0, 2,55.00,56.00,Sunday
7,23.886666666666663
19,29.287787915603513
2,1, 7, 1, 0, 2,56.00,57.00,Sunday
7,23.89
19,29.281061465748024
2,1, 7, 1, 0, 2,57.00,58.00,Sunday
7,23.89333333333333
19,29.274337720376586
2,1, 7, 1, 0, 2,58.00,59.00,Sunday
7,23.896666666666665
19,29.267616673711107
2,1, 7, 1, 0, 2,59.00,60.00,Sunday
7,23.9
19,29.260898319605875
2,1, 7, 1, 0, 2, 0.00,60.00,Sunday
8,24.26527746775356
9,24.270712615909364
10,24.264483631077645
11,24.271491883175724
12,41.95125078996231
13,21.400585411798378
14,21.36466437490276
15,24.10453417758965
16,24.10668904834516
17,24.103593991384024
18,24.107639343540153
2,1, 7, 1, 0, 3, 0.00, 1.00,Sunday
7,23.9
19,29.25414215191152
2,1, 7, 1, 0, 3, 1.00, 2.00,Sunday
7,23.9
19,29.247308303640907
2,1, 7, 1, 0, 3, 2.00, 3.00,Sunday
7,23.9
19,29.240381755884552
2,1, 7, 1, 0, 3, 3.00, 4.00,Sunday
7,23.9
19,29.23336806973214
2,1, 7, 1, 0, 3, 4.00, 5.00,Sunday
7,23.9
19,29.22628116358164
2,1, 7, 1, 0, 3, 5.00, 6.00,Sunday
7,23.9
19,29.219135365228293
2,1, 7, 1, 0, 3, 6.00, 7.00,Sunday
7,23.9
19,29.211942642559375
2,1, 7, 1, 0, 3, 7.00, 8.00,Sunday
7,23.9
19,29.204712497762007
2,1, 7, 1, 0, 3, 8.00, 9.00,Sunday
7,23.9
19,29.19745256581483
2,1, 7, 1, 0, 3, 9.00,10.00,Sunday
7,23.900000000000002
19,29.19016912617302
2,1, 7, 1, 0, 3,10.00,11.00,Sunday
7,23.9
19,29.18286740687564
2,1, 7, 1, 0, 3,11.00,12.00,Sunday
7,23.900000000000002
19,29.175551762336774
2,1, 7, 1, 0, 3,12.00,13.00,Sunday
7,23.9
19,29.168225801571445
2,1, 7, 1, 0, 3,13.00,14.00,Sunday
7,23.9
19,29.160892500053695
2,1, 7, 1, 0, 3,14.00,15.00,Sunday
7,23.9
19,29.15355430158746
2,1, 7, 1, 0, 3,15.00,16.00,Sunday
7,23.9
19,29.146213208420612
2,1, 7, 1, 0, 3,16.00,17.00,Sunday
7,23.9
19,29.138870858182692
2,1, 7, 1, 0, 3,17.00,18.00,Sunday
7,23.899999999999995
19,29.131528588136945
2,1, 7, 1, 0, 3,18.00,19.00,Sunday
7,23.9
19,29.12418748833157
2,1, 7, 1, 0, 3,19.00,20.00,Sunday
7,23.9
19,29.116848445453904
2,1, 7, 1, 0, 3,20.00,21.00,Sunday
7,23.9
19,29.109512178992173
2,1, 7, 1, 0, 3,21.00,22.00,Sunday
7,23.9
19,29.102179271031066
2,1, 7, 1, 0, 3,22.00,23.00,Sunday
7,23.9
19,29.09485019076221
2,1, 7, 1, 0, 3,23.00,24.00,Sunday
7,23.9
19,29.087568873313792
2,1, 7, 1, 0, 3,24.00,25.00,Sunday
7,23.9
19,29.080377774454906
2,1, 7, 1, 0, 3,25.00,26.00,Sunday
7,23.9
19,29.073288807409334
2,1, 7, 1, 0, 3,26.00,27.00,Sunday
7,23.9
19,29.0662926097635
2,1, 7, 1, 0, 3,27.00,28.00,Sunday
7,23.9
19,29.059373120449667
2,1, 7, 1, 0, 3,28.00,29.00,Sunday
7,23.9
19,29.052515536802293
2,1, 7, 1, 0, 3,29.00,30.00,Sunday
7,23.9
19,29.045708371712397
2,1, 7, 1, 0, 3,30.00,31.00,Sunday
7,23.9
19,29.038942964410037
2,1, 7, 1, 0, 3,31.00,32.00,Sunday
7,23.9
19,29.032212563154832
2,1, 7, 1, 0, 3,32.00,33.00,Sunday
7,23.9
19,29.02551175613594
2,1, 7, 1, 0, 3,33.00,34.00,Sunday
7,23.9
19,29.018836196763868
2,1, 7, 1, 0, 3,34.00,35.00,Sunday
7,23.9
19,29.012182338644692
2,1, 7, 1, 0, 3,35.00,36.00,Sunday
7,23.9
19,29.00554724892363
2,1, 7, 1, 0, 3,36.00,37.00,Sunday
7,23.9
19,28.998928495814233
2,1, 7, 1, 0, 3,37.00,38.00,Sunday
7,23.9
19,28.992324068615584
2,1, 7, 1, 0, 3,38.00,39.00,Sunday
7,23.9
19,28.985732309614416
2,1, 7, 1, 0, 3,39.00,40.00,Sunday
7,23.9
19,28.979151853624174
2,1, 7, 1, 0, 3,40.00,41.00,Sunday
7,23.9
19,28.97258157580567
2,1, 7, 1, 0, 3,41.00,42.00,Sunday
7,23.9
19,28.966020548110254
2,1, 7, 1, 0, 3,42.00,43.00,Sunday
7,23.9
19,28.95946800358947
2,1, 7, 1, 0, 3,43.00,44.00,Sunday
7,23.9
19,28.95292330730317
2,1, 7, 1, 0, 3,44.00,45.00,Sunday
7,23.9
19,28.946385932572344
2,1, 7, 1, 0, 3,45.00,46.00,Sunday
7,23.9
19,28.9398554415418
2,1, 7, 1, 0, 3,46.00,47.00,Sunday
7,23.9
19,28.933331469244834
2,1, 7, 1, 0, 3,47.00,48.00,Sunday
7,23.9
19,28.926813710533175
2,1, 7, 1, 0, 3,48.00,49.00,Sunday
7,23.9
19,28.92030190935889
2,1, 7, 1, 0, 3,49.00,50.00,Sunday
7,23.9
19,28.913795849988766
2,1, 7, 1, 0, 3,50.00,51.00,Sunday
7,23.9
19,28.90729534980337
2,1, 7, 1, 0, 3,51.00,52.00,Sunday
7,23.9
19,28.90080025339575
2,1, 7, 1, 0, 3,52.00,53.00,Sunday
7,23.9
19,28.89431042773532
2,1, 7, 1, 0, 3,53.00,54.00,Sunday
7,23.9
19,28.88782575820386
2,1, 7, 1, 0, 3,54.00,55.00,Sunday
7,23.9
19,28.881346145346928
2,1, 7, 1, 0, 3,55.00,56.00,Sunday
7,23.9
19,28.874871502210624
2,1, 7, 1, 0, 3,56.00,57.00,Sunday
7,23.9
19,28.86840175215882
2,1, 7, 1, 0, 3,57.00,58.00,Sunday
7,23.9
19,28.861936827083316
2,1, 7, 1, 0, 3,58.00,59.00,Sunday
7,23.9
19,28.85547666593656
2,1, 7, 1, 0, 3,59.00,60.00,Sunday
7,23.9
19,28.84902121352816
2,1, 7, 1, 0, 3, 0.00,60.00,Sunday
8,24.095479368934356
9,24.095017635178277
10,24.094713064083003
11,24.095773427096663
12,41.03490233056497
13,21.29803536398018
14,21.249514831866932
15,23.94291192471949
16,23.941516552591498
17,23.942039010262388
18,23.942389950355036
2,1, 7, 1, 0, 4, 0.00, 1.00,Sunday
7,23.904999999999998
19,28.842689320625517
2,1, 7, 1, 0, 4, 1.00, 2.00,Sunday
7,23.909999999999997
19,28.836603262803852
2,1, 7, 1, 0, 4, 2.00, 3.00,Sunday
7,23.915
19,28.830807937955644
2,1, 7, 1, 0, 4, 3.00, 4.00,Sunday
7,23.919999999999998
19,28.825285864182412
2,1, 7, 1, 0, 4, 4.00, 5.00,Sunday
7,23.924999999999997
19,28.81999497904425
2,1, 7, 1, 0, 4, 5.00, 6.00,Sunday
7,23.93
19,28.814892693998626
2,1, 7, 1, 0, 4, 6.00, 7.00,Sunday
7,23.935
19,28.80994403941487
2,1, 7, 1, 0, 4, 7.00, 8.00,Sunday
7,23.939999999999998
19,28.805121739151442
2,1, 7, 1, 0, 4, 8.00, 9.00,Sunday
7,23.944999999999997
19,28.800404214354238
2,1, 7, 1, 0, 4, 9.00,10.00,Sunday
7,23.950000000000003
19,28.795784245938265
2,1, 7, 1, 0, 4,10.00,11.00,Sunday
7,23.955
19,28.791236761458
2,1, 7, 1, 0, 4,11.00,12.00,Sunday
7,23.96
19,28.78674311283185
2,1, 7, 1, 0, 4,12.00,13.00,Sunday
7,23.964999999999996
19,28.782294933733585
2,1, 7, 1, 0, 4,13.00,14.00,Sunday
7,23.97
19,28.77788745183105
2,1, 7, 1, 0, 4,14.00,15.00,Sunday
7,23.974999999999998
19,28.773516058851186
2,1, 7, 1, 0, 4,15.00,16.00,Sunday
7,23.98
19,28.769175931639946
2,1, 7, 1, 0, 4,16.00,17.00,Sunday
7,23.985
19,28.7648625406591
2,1, 7, 1, 0, 4,17.00,18.00,Sunday
7,23.989999999999995
19,28.760572006604978
2,1, 7, 1, 0, 4,18.00,19.00,Sunday
7,23.995
19,28.756301160288388
2,1, 7, 1, 0, 4,19.00,20.00,Sunday
7,24.0
19,28.752047446482347
2,1, 7, 1, 0, 4,20.00,21.00,Sunday
7,24.005
19,28.747808797091086
2,1, 7, 1, 0, 4,21.00,22.00,Sunday
7,24.009999999999998
19,28.743583525733026
2,1, 7, 1, 0, 4,22.00,23.00,Sunday
7,24.015
19,28.739370250367095
2,1, 7, 1, 0, 4,23.00,24.00,Sunday
7,24.019999999999996
19,28.735167836129317
2,1, 7, 1, 0, 4,24.00,25.00,Sunday
7,24.025
19,28.730975350736642
2,1, 7, 1, 0, 4,25.00,26.00,Sunday
7,24.03
19,28.726792028153948
2,1, 7, 1, 0, 4,26.00,27.00,Sunday
7,24.035
19,28.72261723852719
2,1, 7, 1, 0, 4,27.00,28.00,Sunday
7,24.04
19,28.71845046334359
2,1, 7, 1, 0, 4,28.00,29.00,Sunday
7,24.044999999999998
19,28.71429127503571
2,1, 7, 1, 0, 4,29.00,30.00,Sunday
7,24.049999999999997
19,28.710139320309832
2,1, 7, 1, 0, 4,30.00,31.00,Sunday
7,24.055
19,28.705994306542113
2,1, 7, 1, 0, 4,31.00,32.00,Sunday
7,24.06
19,28.70185599067838
2,1, 7, 1, 0, 4,32.00,33.00,Sunday
7,24.064999999999998
19,28.69772417017271
2,1, 7, 1, 0, 4,33.00,34.00,Sunday
7,24.07
19,28.693598675587914
2,1, 7, 1, 0, 4,34.00,35.00,Sunday
7,24.075
19,28.689479364551854
2,1, 7, 1, 0, 4,35.00,36.00,Sunday
7,24.08
19,28.685366116821175
2,1, 7, 1, 0, 4,36.00,37.00,Sunday
7,24.085
19,28.68125883025012
2,1, 7, 1, 0, 4,37.00,38.00,Sunday
7,24.09
19,28.677157417498403
2,1, 7, 1, 0, 4,38.00,39.00,Sunday
7,24.095
19,28.67306180334278
2,1, 7, 1, 0, 4,39.00,40.00,Sunday
7,24.1
19,28.66897192248176
2,1, 7, 1, 0, 4,40.00,41.00,Sunday
7,24.104999999999997
19,28.664887717742523
2,1, 7, 1, 0, 4,41.00,42.00,Sunday
7,24.11
19,28.660809138616678
2,1, 7, 1, 0, 4,42.00,43.00,Sunday
7,24.115000000000002
19,28.65673614006449
2,1, 7, 1, 0, 4,43.00,44.00,Sunday
7,24.12
19,28.65266868153808
2,1, 7, 1, 0, 4,44.00,45.00,Sunday
7,24.125
19,28.64860672618342
2,1, 7, 1, 0, 4,45.00,46.00,Sunday
7,24.13
19,28.644608361193654
2,1, 7, 1, 0, 4,46.00,47.00,Sunday
7,24.134999999999998
19,28.64072846709208
2,1, 7, 1, 0, 4,47.00,48.00,Sunday
7,24.139999999999997
19,28.636981649674606
2,1, 7, 1, 0, 4,48.00,49.00,Sunday
7,24.145
19,28.63335513849683
2,1, 7, 1, 0, 4,49.00,50.00,Sunday
7,24.15
19,28.629827689344058
2,1, 7, 1, 0, 4,50.00,51.00,Sunday
7,24.155
19,28.62637978231714
2,1, 7, 1, 0, 4,51.00,52.00,Sunday
7,24.159999999999997
19,28.6229962509493
2,1, 7, 1, 0, 4,52.00,53.00,Sunday
7,24.165
19,28.619665654759068
2,1, 7, 1, 0, 4,53.00,54.00,Sunday
7,24.17
19,28.616379103876334
2,1, 7, 1, 0, 4,54.00,55.00,Sunday
7,24.174999999999997
19,28.61312943558131
2,1, 7, 1, 0, 4,55.00,56.00,Sunday
7,24.18
19,28.60991076786777
2,1, 7, 1, 0, 4,56.00,57.00,Sunday
7,24.185
19,28.606718254174634
2,1, 7, 1, 0, 4,57.00,58.00,Sunday
7,24.19
19,28.60354791395829
2,1, 7, 1, 0, 4,58.00,59.00,Sunday
7,24.194999999999997
19,28.600396489549915
2,1, 7, 1, 0, 4,59.00,60.00,Sunday
7,24.2
19,28.597261319608407
2,1, 7, 1, 0, 4, 0.00,60.00,Sunday
8,23.996113039517112
9,23.993083748293426
10,23.993867847314853
11,23.995326834834383
12,40.193943078843986
13,21.306045614130753
14,21.24423369237182
15,23.86333108398741
16,23.858662724188836
17,23.85929655640119
18,23.86268315244143
2,1, 7, 1, 0, 5, 0.00, 1.00,Sunday
7,24.21333333333333
19,28.594353367482796
2,1, 7, 1, 0, 5, 1.00, 2.00,Sunday
7,24.226666666666667
19,28.591892436111358
2,1, 7, 1, 0, 5, 2.00, 3.00,Sunday
7,24.24
19,28.58996033124917
2,1, 7, 1, 0, 5, 3.00, 4.00,Sunday
7,24.253333333333334
19,28.588525381248722
2,1, 7, 1, 0, 5, 4.00, 5.00,Sunday
7,24.266666666666662
19,28.587510001526887
2,1, 7, 1, 0, 5, 5.00, 6.00,Sunday
7,24.28
19,28.586834824293103
2,1, 7, 1, 0, 5, 6.00, 7.00,Sunday
7,24.293333333333333
19,28.586434223516374
2,1, 7, 1, 0, 5, 7.00, 8.00,Sunday
7,24.306666666666665
19,28.586256869885165
2,1, 7, 1, 0, 5, 8.00, 9.00,Sunday
7,24.32
19,28.586262198254477
2,1, 7, 1, 0, 5, 9.00,10.00,Sunday
7,24.333333333333336
19,28.58641731971977
2,1, 7, 1, 0, 5,10.00,11.00,Sunday
7,24.346666666666664
19,28.586695144587576
2,1, 7, 1, 0, 5,11.00,12.00,Sunday
7,24.36
19,28.58707328609273
2,1, 7, 1, 0, 5,12.00,13.00,Sunday
7,24.373333333333335
19,28.587533300129298
2,1, 7, 1, 0, 5,13.00,14.00,Sunday
7,24.386666666666663
19,28.588060051592045
2,1, 7, 1, 0, 5,14.00,15.00,Sunday
7,24.4
19,28.588641154094017
2,1, 7, 1, 0, 5,15.00,16.00,Sunday
7,24.413333333333334
19,28.58926648322829
2,1, 7, 1, 0, 5,16.00,17.00,Sunday
7,24.426666666666666
19,28.58992776660358
2,1, 7, 1, 0, 5,17.00,18.00,Sunday
7,24.439999999999998
19,28.590618245614316
2,1, 7, 1, 0, 5,18.00,19.00,Sunday
7,24.453333333333333
19,28.591332398783944
2,1, 7, 1, 0, 5,19.00,20.00,Sunday
7,24.46666666666667
19,28.59206571579502
2,1, 7, 1, 0, 5,20.00,21.00,Sunday
7,24.48
19,28.592814512749992
2,1, 7, 1, 0, 5,21.00,22.00,Sunday
7,24.493333333333332
19,28.59357578102919
2,1, 7, 1, 0, 5,22.00,23.00,Sunday
7,24.506666666666668
19,28.594347063639454
2,1, 7, 1, 0, 5,23.00,24.00,Sunday
7,24.52
19,28.595126354104277
2,1, 7, 1, 0, 5,24.00,25.00,Sunday
7,24.53333333333333
19,28.595912013833463
2,1, 7, 1, 0, 5,25.00,26.00,Sunday
7,24.546666666666667
19,28.596702704624725
2,1, 7, 1, 0, 5,26.00,27.00,Sunday
7,24.560000000000002
19,28.597497333540794
2,1, 7, 1, 0, 5,27.00,28.00,Sunday
7,24.57333333333333
19,28.598295007898866
2,1, 7, 1, 0, 5,28.00,29.00,Sunday
7,24.586666666666666
19,28.599094998520066
2,1, 7, 1, 0, 5,29.00,30.00,Sunday
7,24.6
19,28.599896709725403
2,1, 7, 1, 0, 5,30.00,31.00,Sunday
7,24.613333333333333
19,28.600699654838948
2,1, 7, 1, 0, 5,31.00,32.00,Sunday
7,24.626666666666665
19,28.601503436188732
2,1, 7, 1, 0, 5,32.00,33.00,Sunday
7,24.64
19,28.602307728778943
2,1, 7, 1, 0, 5,33.00,34.00,Sunday
7,24.653333333333332
19,28.603112266959734
2,1, 7, 1, 0, 5,34.00,35.00,Sunday
7,24.666666666666664
19,28.603916833543863
2,1, 7, 1, 0, 5,35.00,36.00,Sunday
7,24.68
19,28.604721250921205
2,1, 7, 1, 0, 5,36.00,37.00,Sunday
7,24.693333333333335
19,28.60552537380352
2,1, 7, 1, 0, 5,37.00,38.00,Sunday
7,24.706666666666663
19,28.606329083300583
2,1, 7, 1, 0, 5,38.00,39.00,Sunday
7,24.72
19,28.60713228208329
2,1, 7, 1, 0, 5,39.00,40.00,Sunday
7,24.733333333333334
19,28.607934890433867
2,1, 7, 1, 0, 5,40.00,41.00,Sunday
7,24.746666666666666
19,28.608736843020363
2,1, 7, 1, 0, 5,41.00,42.00,Sunday
7,24.76
19,28.609538086262663
2,1, 7, 1, 0, 5,42.00,43.00,Sunday
7,24.773333333333333
19,28.610338576181285
2,1, 7, 1, 0, 5,43.00,44.00,Sunday
7,24.786666666666665
19,28.61113827664037
2,1, 7, 1, 0, 5,44.00,45.00,Sunday
7,24.8
19,28.61193715791283
2,1, 7, 1, 0, 5,45.00,46.00,Sunday
7,24.813333333333333
19,28.612735195508357
2,1, 7, 1, 0, 5,46.00,47.00,Sunday
7,24.826666666666664
19,28.613532369216053
2,1, 7, 1, 0, 5,47.00,48.00,Sunday
7,24.84
19,28.614328662322308
2,1, 7, 1, 0, 5,48.00,49.00,Sunday
7,24.853333333333335
19,28.615124060971954
2,1, 7, 1, 0, 5,49.00,50.00,Sunday
7,24.866666666666667
19,28.6159185536463
2,1, 7, 1, 0, 5,50.00,51.00,Sunday
7,24.88
19,28.61671213073651
2,1, 7, 1, 0, 5,51.00,52.00,Sunday
7,24.893333333333334
19,28.61750478419526
2,1, 7, 1, 0, 5,52.00,53.00,Sunday
7,24.906666666666666
19,28.618296507252246
2,1, 7, 1, 0, 5,53.00,54.00,Sunday
7,24.919999999999998
19,28.61908729418142
2,1, 7, 1, 0, 5,54.00,55.00,Sunday
7,24.93333333333333
19,28.61987714011084
2,1, 7, 1, 0, 5,55.00,56.00,Sunday
7,24.946666666666665
19,28.620666040867444
2,1, 7, 1, 0, 5,56.00,57.00,Sunday
7,24.96
19,28.62145399284982
2,1, 7, 1, 0, 5,57.00,58.00,Sunday
7,24.973333333333333
19,28.622240992924286
2,1, 7, 1, 0, 5,58.00,59.00,Sunday
7,24.986666666666668
19,28.623027038340553
2,1, 7, 1, 0, 5,59.00,60.00,Sunday
7,25.0
19,28.623812126661925
2,1, 7, 1, 0, 5, 0.00,60.00,Sunday
8,24.233818254845012
9,24.224493799848396
10,24.225240116374046
11,24.23304722543686
12,39.48938009999683
13,21.537348830687773
14,21.468245241389653
15,24.122343185773694
16,24.11110928446188
17,24.11184026320189
18,24.12162549123826
2,1, 7, 1, 0, 6, 0.00, 1.00,Sunday
7,25.01833333333333
19,28.624738036887617
2,1, 7, 1, 0, 6, 1.00, 2.00,Sunday
7,25.03666666666667
19,28.62595435518376
2,1, 7, 1, 0, 6, 2.00, 3.00,Sunday
7,25.055
19,28.62751842475178
2,1, 7, 1, 0, 6, 3.00, 4.00,Sunday
7,25.07333333333333
19,28.629412491387644
2,1, 7, 1, 0, 6, 4.00, 5.00,Sunday
7,25.091666666666665
19,28.63158868057224
2,1, 7, 1, 0, 6, 5.00, 6.00,Sunday
7,25.11
19,28.6339978439261
2,1, 7, 1, 0, 6, 6.00, 7.00,Sunday
7,25.128333333333334
19,28.636599498566248
2,1, 7, 1, 0, 6, 7.00, 8.00,Sunday
7,25.14666666666667
19,28.63943348488414
2,1, 7, 1, 0, 6, 8.00, 9.00,Sunday
7,25.165
19,28.64254218033951
2,1, 7, 1, 0, 6, 9.00,10.00,Sunday
7,25.183333333333337
19,28.64592336879849
2,1, 7, 1, 0, 6,10.00,11.00,Sunday
7,25.201666666666668
19,28.64954489727835
2,1, 7, 1, 0, 6,11.00,12.00,Sunday
7,25.22
19,28.653367012773252
2,1, 7, 1, 0, 6,12.00,13.00,Sunday
7,25.238333333333333
19,28.657354332923717
2,1, 7, 1, 0, 6,13.00,14.00,Sunday
7,25.256666666666664
19,28.661478716029333
2,1, 7, 1, 0, 6,14.00,15.00,Sunday
7,25.275
19,28.665718210295836
2,1, 7, 1, 0, 6,15.00,16.00,Sunday
7,25.293333333333337
19,28.670055359604202
2,1, 7, 1, 0, 6,16.00,17.00,Sunday
7,25.311666666666667
19,28.67447596496757
2,1, 7, 1, 0, 6,17.00,18.00,Sunday
7,25.33
19,28.678968338246513
2,1, 7, 1, 0, 6,18.00,19.00,Sunday
7,25.348333333333333
19,28.683522834696806
2,1, 7, 1, 0, 6,19.00,20.00,Sunday
7,25.366666666666667
19,28.68813150804132
2,1, 7, 1, 0, 6,20.00,21.00,Sunday
7,25.384999999999998
19,28.69278782253476
2,1, 7, 1, 0, 6,21.00,22.00,Sunday
7,25.403333333333332
19,28.697486405442415
2,1, 7, 1, 0, 6,22.00,23.00,Sunday
7,25.421666666666667
19,28.702222837644467
2,1, 7, 1, 0, 6,23.00,24.00,Sunday
7,25.44
19,28.706993480138927
2,1, 7, 1, 0, 6,24.00,25.00,Sunday
7,25.458333333333336
19,28.71179533200325
2,1, 7, 1, 0, 6,25.00,26.00,Sunday
7,25.476666666666667
19,28.716625914517433
2,1, 7, 1, 0, 6,26.00,27.00,Sunday
7,25.495000000000005
19,28.721483176553868
2,1, 7, 1, 0, 6,27.00,28.00,Sunday
7,25.513333333333335
19,28.726365417200466
2,1, 7, 1, 0, 6,28.00,29.00,Sunday
7,25.531666666666666
19,28.731271222412296
2,1, 7, 1, 0, 6,29.00,30.00,Sunday
7,25.55
19,28.736199413134315
2,1, 7, 1, 0, 6,30.00,31.00,Sunday
7,25.568333333333335
19,28.741149002824503
2,1, 7, 1, 0, 6,31.00,32.00,Sunday
7,25.586666666666666
19,28.7461191626818
2,1, 7, 1, 0, 6,32.00,33.00,Sunday
7,25.605
19,28.751109193186053
2,1, 7, 1, 0, 6,33.00,34.00,Sunday
7,25.623333333333335
19,28.756118500806057
2,1, 7, 1, 0, 6,34.00,35.00,Sunday
7,25.641666666666666
19,28.76114657893782
2,1, 7, 1, 0, 6,35.00,36.00,Sunday
7,25.66
19,28.766192992304873
2,1, 7, 1, 0, 6,36.00,37.00,Sunday
7,25.678333333333335
19,28.771257364192046
2,1, 7, 1, 0, 6,37.00,38.00,Sunday
7,25.69666666666667
19,28.776339365997053
2,1, 7, 1, 0, 6,38.00,39.00,Sunday
7,25.715
19,28.781438708680025
2,1, 7, 1, 0, 6,39.00,40.00,Sunday
7,25.733333333333334
19,28.786555135765852
2,1, 7, 1, 0, 6,40.00,41.00,Sunday
7,25.751666666666665
19,28.791688417616726
2,1, 7, 1, 0, 6,41.00,42.00,Sunday
7,25.77
19,28.79683834674403
2,1, 7, 1, 0, 6,42.00,43.00,Sunday
7,25.788333333333334
19,28.80200473397125
2,1, 7, 1, 0, 6,43.00,44.00,Sunday
7,25.80666666666667
19,28.80718740529244
2,1, 7, 1, 0, 6,44.00,45.00,Sunday
7,25.825000000000003
19,28.812386199300043
2,1, 7, 1, 0, 6,45.00,46.00,Sunday
7,25.843333333333334
19,28.81760096507878
2,1, 7, 1, 0, 6,46.00,47.00,Sunday
7,25.861666666666668
19,28.822831560480488
2,1, 7, 1, 0, 6,47.00,48.00,Sunday
7,25.880000000000003
19,28.82807785071046
2,1, 7, 1, 0, 6,48.00,49.00,Sunday
7,25.898333333333333
19,28.833339707168864
2,1, 7, 1, 0, 6,49.00,50.00,Sunday
7,25.91666666666667
19,28.838617006501263
2,1, 7, 1, 0, 6,50.00,51.00,Sunday
7,25.935000000000002
19,28.843971183534133
2,1, 7, 1, 0, 6,51.00,52.00,Sunday
7,25.953333333333333
19,28.849316387275543
2,1, 7, 1, 0, 6,52.00,53.00,Sunday
7,25.971666666666668
19,28.85463944801143
2,1, 7, 1, 0, 6,53.00,54.00,Sunday
7,25.990000000000002
19,28.85995662672995
2,1, 7, 1, 0, 6,54.00,55.00,Sunday
7,26.008333333333336
19,28.86528357191865
2,1, 7, 1, 0, 6,55.00,56.00,Sunday
7,26.02666666666667
19,28.870627703399688
2,1, 7, 1, 0, 6,56.00,57.00,Sunday
7,26.045
19,28.875990619745988
2,1, 7, 1, 0, 6,57.00,58.00,Sunday
7,26.063333333333333
19,28.881371646488873
2,1, 7, 1, 0, 6,58.00,59.00,Sunday
7,26.081666666666667
19,28.900975181271768
2,1, 7, 1, 0, 6,59.00,60.00,Sunday
7,26.1
19,29.029963281421644
2,1, 7, 1, 0, 6, 0.00,60.00,Sunday
8,24.79513523631443
9,24.7749721275686
10,24.77527258326221
11,24.797469292650927
12,38.98444902183043
13,22.077674055537056
14,21.989688087480737
15,24.69695069891942
16,24.677422904175994
17,24.67530774805991
18,24.70103364667626
2,1, 7, 1, 0, 7, 0.00, 1.00,Sunday
7,26.08
19,29.264116617931087
2,1, 7, 1, 0, 7, 1.00, 2.00,Sunday
7,26.06
19,29.524180588930047
2,1, 7, 1, 0, 7, 2.00, 3.00,Sunday
7,26.040000000000003
19,29.760679935804028
2,1, 7, 1, 0, 7, 3.00, 4.00,Sunday
7,26.020000000000003
19,29.960097429161806
2,1, 7, 1, 0, 7, 4.00, 5.00,Sunday
7,26.0
19,30.126562832530936
2,1, 7, 1, 0, 7, 5.00, 6.00,Sunday
7,25.980000000000004
19,30.268047013966488
2,1, 7, 1, 0, 7, 6.00, 7.00,Sunday
7,25.96
19,30.3910015693618
2,1, 7, 1, 0, 7, 7.00, 8.00,Sunday
7,25.94
19,30.49971902484871
2,1, 7, 1, 0, 7, 8.00, 9.00,Sunday
7,25.92
19,30.596957205720287
2,1, 7, 1, 0, 7, 9.00,10.00,Sunday
7,25.900000000000002
19,30.684900854160887
2,1, 7, 1, 0, 7,10.00,11.00,Sunday
7,25.880000000000003
19,30.764900288750635
2,1, 7, 1, 0, 7,11.00,12.00,Sunday
7,25.860000000000003
19,30.838948742887826
2,1, 7, 1, 0, 7,12.00,13.00,Sunday
7,25.84
19,30.908103495841825
2,1, 7, 1, 0, 7,13.00,14.00,Sunday
7,25.819999999999997
19,30.97339328902709