Program Version,EnergyPlus, Version 25.1.0-1c11a3d85f, YMD=2026.04.10 11:42
1,5,Environment Title[],Latitude[deg],Longitude[deg],Time Zone[],Elevation[m]
2,8,Day of Simulation[],Month[],Day of Month[],DST Indicator[1=yes 0=no],Hour[],StartMinute[],EndMinute[],DayType
3,5,Cumulative Day of Simulation[],Month[],Day of Month[],DST Indicator[1=yes 0=no],DayType  ! When Daily Report Variables Requested
4,2,Cumulative Days of Simulation[],Month[]  ! When Monthly Report Variables Requested
5,1,Cumulative Days of Simulation[] ! When Run Period Report Variables Requested
6,1,Calendar Year of Simulation[] ! When Annual Report Variables Requested
7,1,Environment,Site Outdoor Air Drybulb Temperature [C] !TimeStep
8,1,WALL_N,Surface Inside Face Temperature [C] !TimeStep
9,1,WALL_N,Surface Outside Face Temperature [C] !TimeStep
10,1,WALL_N,Surface Inside Face Conduction Heat Transfer Energy [J] !TimeStep
11,1,WALL_S,Surface Inside Face Temperature [C] !TimeStep
12,1,WALL_S,Surface Outside Face Temperature [C] !TimeStep
13,1,WALL_S,Surface Inside Face Conduction Heat Transfer Energy [J] !TimeStep
14,1,WALL_E,Surface Inside Face Temperature [C] !TimeStep
15,1,WALL_E,Surface Outside Face Temperature [C] !TimeStep
16,1,WALL_E,Surface Inside Face Conduction Heat Transfer Energy [J] !TimeStep
17,1,WALL_W,Surface Inside Face Temperature [C] !TimeStep
18,1,WALL_W,Surface Outside Face Temperature [C] !TimeStep
19,1,WALL_W,Surface Inside Face Conduction Heat Transfer Energy [J] !TimeStep
20,1,FLOOR,Surface Inside Face Temperature [C] !TimeStep
21,1,FLOOR,Surface Outside Face Temperature [C] !TimeStep
22,1,FLOOR,Surface Inside Face Conduction Heat Transfer Energy [J] !TimeStep
23,1,ROOF,Surface Inside Face Temperature [C] !TimeStep
24,1,ROOF,Surface Outside Face Temperature [C] !TimeStep
25,1,ROOF,Surface Inside Face Conduction Heat Transfer Energy [J] !TimeStep
26,1,GREENHOUSE,Zone Mean Air Temperature [C] !TimeStep
27,1,GREENHOUSE,Zone Mean Radiant Temperature [C] !TimeStep
End of Data Dictionary
1,RUN PERIOD 1,  50.90,   4.53,   1.00,  58.00
2,1,12,10, 0, 1, 0.00,10.00,Sunday
7,7.066666666666666
8,5.473984016910912
9,5.4756761429255185
10,504923.4978267537
11,5.524032355018051
12,5.52599490003848
13,572063.7271140495
14,5.515041485204708
15,5.516955384490044
16,785489.4797815317
17,5.515041485204707
18,5.516955384490043
19,785489.4797815313
20,5.986075317082905
21,10.7
22,71064067.72583807
23,4.117093419401339
24,4.107804098358299
25,-73026947.06771493
26,5.130098768098128
27,5.079520274690526
2,1,12,10, 0, 1,10.00,20.00,Sunday
7,6.633333333333335
8,5.134690382127653
9,5.135150962420645
10,245994.86827582584
11,5.176163570513745
12,5.176832000434297
13,296952.5437159877
14,5.166948425638608
15,5.167569197731417
16,400651.2612760249
17,5.166948425638607
18,5.167569197731416
19,400651.26127602375
20,5.948390207385773
21,10.7
22,79238646.40526864
23,3.802671878852284
24,3.7916570456105014
25,-87707952.48454542
26,5.089696758309247
27,4.893060180868295
2,1,12,10, 0, 1,20.00,30.00,Sunday
7,6.2
8,4.780651848848356
9,4.780192742399473
10,42376.90502845997
11,4.816176359066742
12,4.815848489966547
13,74779.2584833545
14,4.806327751426737
15,4.805956631398087
16,91252.32369689897
17,4.8063277514267355
18,4.805956631398085
19,91252.3236968984
20,5.905496940006637
21,10.7
22,88534256.93490574
23,3.4823400290296447
24,3.469674324807961
25,-101485334.544124
26,4.979947083825988
27,4.700591638044319
2,1,12,10, 0, 1,30.00,40.00,Sunday
7,5.7666666666666675
8,4.436356621639121
9,4.434989530077143
10,-168688.58140331108
11,4.458286766648659
12,4.457033273021393
13,-137144.4235360353
14,4.449542521687868
15,4.448238321876171
16,-208827.57578181528
17,4.449542521687868
18,4.448238321876171
19,-208827.57578181644
20,5.847404709873745
21,10.7
22,98365843.69504474
23,3.155855228277059
24,3.141690672656254
25,-113982480.75159533
26,4.821751230493427
27,4.498387770410961
2,1,12,10, 0, 1,40.00,50.00,Sunday
7,5.333333333333334
8,4.090359071860364
9,4.088070202131892
10,-378145.4877756207
11,4.105292009271458
12,4.103083143464576
13,-356995.8693476
14,4.096499680432601
15,4.094236623628711
16,-517063.29948653176
17,4.0964996804326
18,4.09423662362871
19,-517063.29948653176
20,5.785773738441809
21,10.7
22,108959128.15100591
23,2.8228494893411025
24,2.8072613938733166
25,-125840949.7940655
26,4.634882299863549
27,4.2916358724440435
2,1,12,10, 0, 1,50.00,60.00,Sunday
7,4.9
8,3.742672415624251
9,3.7395109100245056
10,-576413.1074351077
11,3.7507848425998205
12,3.7476636498165563
13,-564385.4461848558
14,3.74208168343384
15,3.738904874865144
16,-807943.6793908342
17,3.742081683433839
18,3.7389048748651432
19,-807943.6793908345
20,5.712031590995003
21,10.7
22,119530580.67215116
23,2.488340455723844
24,2.4714361233549567
25,-136874964.96696964
26,4.432266812533884
27,4.0784032096084575
2,1,12,10, 0, 2, 0.00,10.00,Sunday
7,4.916666666666667
8,3.7052156614155667
9,3.702655296774216
10,-568312.4715311474
11,3.717670673911901
12,3.715190162665117
13,-551913.9737814722
14,3.709071101743702
15,3.7065363263564044
16,-790061.1460168433
17,3.7090711017437012
18,3.7065363263564035
19,-790061.1460168438
20,5.678426396108547
21,10.7
22,121462739.81199029
23,2.4837742484332748
24,2.4678702014962175
25,-133529849.90689096
26,4.261614215310075
27,4.058407909176007
2,1,12,10, 0, 2,10.00,20.00,Sunday
7,4.933333333333334
8,3.7007923224752304
9,3.6986025831341243
10,-497482.02196558006
11,3.716530117818771
12,3.7144362848312307
13,-476980.0640865096
14,3.7079101072999823
15,3.7057630115045748
16,-684761.9199067957
17,3.7079101072999823
18,3.7057630115045748
19,-684761.9199067963
20,5.642079902844349
21,10.7
22,122961143.3174812
23,2.4768764749167826
24,2.4614882738207577
25,-129158356.87904392
26,4.149643653629144
27,4.037995847979304
2,1,12,10, 0, 2,20.00,30.00,Sunday
7,4.95
8,3.700358841271545
9,3.6983909179902916
10,-448540.721419785
11,3.7195526645793002
12,3.7176990000258883
13,-423926.6653916203
14,3.7109127839998624
15,3.7090068272654286
16,-610177.6611824862
17,3.710912783999862
18,3.709006827265428
19,-610177.6611824862
20,5.610955640308049
21,10.7
22,123335485.81471162
23,2.480044436562736
24,2.4650824461067837
25,-125731564.92619373
26,4.088628534428358
27,4.02501269617054
2,1,12,10, 0, 2,30.00,40.00,Sunday
7,4.966666666666667
8,3.707328152223819
9,3.705518730241042
10,-415464.5572175929
11,3.729909059692217
12,3.72823150409952
13,-386807.23082492343
14,3.7212705118183953
15,3.7195415027001952
16,-557955.0431716414
17,3.7212705118183957
18,3.7195415027001957
19,-557955.0431716414
20,5.5867959999558945
21,10.7
22,122817746.56640375
23,2.491996867651323
24,2.4773597692930567
25,-123136194.5864691
26,4.059205373426946
27,4.01987265663908
2,1,12,10, 0, 2,40.00,50.00,Sunday
7,4.983333333333333
8,3.7191491606267584
9,3.7174579537668793
10,-390518.57803879445
11,3.7450565630870045
12,3.743514606959611
13,-357872.445174406
14,3.7364314504419553
15,3.7348387323241776
16,-517232.6044839171
17,3.736431450441955
18,3.734838732324177
19,-517232.6044839171
20,5.565584574415233
21,10.7
22,121665417.71719325
23,2.5099290282122864
24,2.4955602592735064
25,-120973325.29671836
26,4.04564482603383
27,4.019217800263773
2,1,12,10, 0, 2,50.00,60.00,Sunday
7,5.0
8,3.733377558385411
9,3.731776652170576
10,-370924.71111593174
11,3.7625731392115958
12,3.7611387248687898
13,-334331.6765596409
14,3.753967323093736
15,3.75248273768361
16,-484090.28921946447
17,3.7539673230937356
18,3.7524827376836094
19,-484090.28921946447
20,5.549144951140213
21,10.7
22,120360137.95378658
23,2.5305355107708256
24,2.5163898151794317
25,-119140137.96369357
26,4.0395621465068015
27,4.022203894970934
2,1,12,10, 0, 3, 0.00,10.00,Sunday
7,5.016666666666667
8,3.7421011710429277
9,3.740570862470308
10,-352541.1549493056
11,3.7747311250062765
12,3.7733857718605055
13,-311799.2827477265
14,3.766084302480527
15,3.764688849992709
16,-452486.89883446286
17,3.7660843024805266
18,3.7646888499927087
19,-452486.8988344632
20,5.531311259124932
21,10.7
22,119354925.03833114
23,2.534910615552112
24,2.5208432135664838
25,-118233506.59820408
26,4.035528743911861
27,4.016584502944494
2,1,12,10, 0, 3,10.00,20.00,Sunday
7,5.033333333333333
8,3.7489035331605702
9,3.747432186668639
10,-338298.7701641746
11,3.785037384758404
12,3.783769769732122
13,-293304.8590268858
14,3.776355878912882
15,3.775038301092611
16,-426554.8067928156
17,3.776355878912882
18,3.775038301092611
19,-426554.8067928156
20,5.516479835410669
21,10.7
22,118439424.16725582
23,2.540329033837308
24,2.526360112636065
25,-117422332.48916082
26,4.031267129654793
27,4.012750280761944
2,1,12,10, 0, 3,20.00,30.00,Sunday
7,5.05
8,3.756461253441363
9,3.755055406179525
10,-323679.3938078252
11,3.7961162438642133
12,3.794932763395755
13,-274443.7607270286
14,3.7874016932413603
15,3.786168403702876
16,-400101.1560807546
17,3.7874016932413603
18,3.786168403702876
19,-400101.1560807546
20,5.501666491270828
21,10.7
22,117520031.7514259
23,2.546443884334658
24,2.5325771507710324
25,-116574624.37788841
26,4.026658557082928
27,4.009298555158991
2,1,12,10, 0, 3,30.00,40.00,Sunday
7,5.066666666666666
8,3.7641037398276875
9,3.762758694691898
10,-309850.9617207401
11,3.807321897364404
12,3.806217921975135
13,-256368.5057755667
14,3.79857315007731
15,3.7974195189662034
16,-374746.18114450265
17,3.798573150077309
18,3.7974195189662026
19,-374746.18114450265
20,5.488774135429373
21,10.7
22,116698872.35338752
23,2.5526283403683423
24,2.5388568382145427
25,-115775705.2771306
26,4.022275330881654
27,4.006788433308183
2,1,12,10, 0, 3,40.00,50.00,Sunday
7,5.083333333333333
8,3.7721018031764246
9,3.770818078547262
10,-296017.51609500754
11,3.818909447627641
12,3.8178854296132574
13,-238296.76569472888
14,3.8101267336117544
15,3.8090532300239737
16,-349391.57084360387
17,3.8101267336117544
18,3.8090532300239737
19,-349391.5708436044
20,5.475933846406077
21,10.7
22,115866505.81358187
23,2.559397981062657
24,2.5457251330964086
25,-114955975.78527986
26,4.018491362015241
27,4.004600479628176
2,1,12,10, 0, 3,50.00,60.00,Sunday
7,5.1
8,3.7802673906331528
9,3.779040896438583
10,-283037.8642133816
11,3.8306945992521286
12,3.8297464501927974
13,-221080.01225946986
14,3.8218778121344523
15,3.820880347808847
16,-325233.6922379713
17,3.821877812134452
18,3.8208803478088464
19,-325233.6922379713
20,5.464682878989343
21,10.7
22,115094032.7325101
23,2.566361198524532
24,2.552780230202258
25,-114187107.81857635
26,4.0154460764232605
27,4.003261153214248
2,1,12,10, 0, 4, 0.00,10.00,Sunday
7,5.083333333333333
8,3.748248541850492
9,3.7470019902804346
10,-270924.1339700924
11,3.7846649173498643
12,3.7835953819746178
13,-224734.93314688583
14,3.7756722887782512
15,3.774551871773558
16,-330767.83146207186
17,3.775672288778251
18,3.7745518717735576
19,-330767.8314620724
20,5.443118467260126
21,10.7
22,116541480.83390339
23,2.4882599739568767
24,2.474184156660692
25,-117040051.82850012
26,4.003767186307666
27,3.9538331748522753
2,1,12,10, 0, 4,10.00,20.00,Sunday
7,5.066666666666666
8,3.7027409606852824
9,3.701464626760105
10,-272115.7318703275
11,3.7261021984404596
12,3.7249347678552085
13,-241857.94221780525
14,3.7169529060505706
15,3.7157331368121223
16,-355216.29080044973
17,3.71695290605057
18,3.715733136812122
19,-355216.29080045025
20,5.420492614774108
21,10.7
22,118213402.53961022
23,2.406096409654599
24,2.391629295569919
25,-120265426.13116749
26,3.9770619949715518
27,3.901221990159184
2,1,12,10, 0, 4,20.00,30.00,Sunday
7,5.05
8,3.653932896784269
9,3.652661761652643
10,-269566.21481700003
11,3.6635697543825376
12,3.6623315444511317
13,-256352.52338242144
14,3.6542479496584392
15,3.6529559721635363
16,-375955.6115475897
17,3.6542479496584392
18,3.652955972163536
19,-375955.61154758994
20,5.395840039598655
21,10.7
22,120321566.92943262
23,2.3159298963263506
24,2.3010586683343117
25,-123537561.29521582
26,3.936093339879305
27,3.843667849008518
2,1,12,10, 0, 4,30.00,40.00,Sunday
7,5.033333333333333
8,3.5998762217700637
9,3.598621720889494
10,-263597.39941547427
11,3.5952669179625953
12,3.5939657957387205
13,-268303.25313336035
14,3.5857545213665953
15,3.584398221727706
16,-393126.15870502254
17,3.585754521366595
18,3.5843982217277057
19,-393126.15870502254
20,5.367445860460275
21,10.7
22,122790511.7199964
23,2.2170143150385977
24,2.2017313364029483
25,-126862467.70973785
26,3.8843097707605
27,3.779903422103564
2,1,12,10, 0, 4,40.00,50.00,Sunday
7,5.016666666666667
8,3.5399684053284974
9,3.5387350385359153
10,-256351.5292838086
11,3.520693942510942
12,3.5193317520739407
13,-279625.23224914627
14,3.510978198237063
15,3.509559411556274
16,-409422.4072710477
17,3.5109781982370625
18,3.5095594115562734
19,-409422.4072710477
20,5.337156651282393
21,10.7
22,125667352.96091878
23,2.1083701413315605
24,2.092646649466845
25,-130413885.25291346
26,3.8245932557933813
27,3.71030403673882
2,1,12,10, 0, 4,50.00,60.00,Sunday
7,5.0
8,3.4738677061786554
9,3.4726597980885807
10,-247977.81114945756
11,3.4398545123402493
12,3.438435350522839
13,-290015.00856987725
14,3.4299276630890496
15,3.4284504777961984
16,-424419.1580992499
17,3.429927663089049
18,3.428450477796198
19,-424419.1580992504
20,5.302927711296949
21,10.7
22,128811976.70434615
23,1.9898371327049182
24,1.9736451690936991
25,-134197709.10796826
26,3.7582045885626956
27,3.633830649563777
2,1,12,10, 0, 5, 0.00,10.00,Sunday
7,5.0
8,3.4739634119677576
9,3.4728548808701105
10,-252800.0773366392
11,3.434183182856466
12,3.432846375251947
13,-302451.41571564466
14,3.4245489214336122
15,3.4231567806815026
16,-441264.87871753663
17,3.4245489214336122
18,3.4231567806815026
19,-441264.878717537
20,5.288788387081672
21,10.7
22,127632403.57967427
23,2.043648708012741
24,2.028225313983676
25,-130383533.00577086
26,3.7061223504235166
27,3.652190688363746
2,1,12,10, 0, 5,10.00,20.00,Sunday
7,5.0
8,3.50140668554324
9,3.5004643870929653
10,-226257.4555176051
11,3.456112986500993
12,3.454916483229905
13,-281924.30028628313
14,3.446717187196622
15,3.445467450547127
16,-411825.0997209386
17,3.446717187196622
18,3.445467450547127
19,-411825.0997209386
20,5.27551984993277
21,10.7
22,126297424.85896564
23,2.0958450293801256
24,2.080917689400897
25,-126190441.95495924
26,3.6813095171539536
27,3.671884149441207
2,1,12,10, 0, 5,20.00,30.00,Sunday
7,5.0
8,3.5295946545942316
9,3.528721524918222
10,-210781.07623704243
11,3.4796231477207633
12,3.478475769555058
13,-271365.5482591615
14,3.470476017907002
15,3.4692774346188955
16,-396401.3420903735
17,3.4704760179070013
18,3.4692774346188946
19,-396401.3420903735
20,5.265270401722159
21,10.7
22,124312601.20938174
23,2.1566016803425008
24,2.1421561705856353
25,-122273857.86668406
26,3.681106006185097
27,3.6970995975334624
2,1,12,10, 0, 5,30.00,40.00,Sunday
7,5.0
8,3.562192902001815
9,3.561362016538066
10,-202975.3469347531
11,3.5088217043001295
12,3.507703330686267
13,-267109.87466312305
14,3.499961492663215
15,3.4987939160042085
16,-389826.55070734135
17,3.499961492663215
18,3.4987939160042085
19,-389826.5507073417
20,5.260760387746995
21,10.7
22,121881831.81645325
23,2.2251877720731486
24,2.211188719935493
25,-118643110.0683055
26,3.697406858775992
27,3.729017530045279
2,1,12,10, 0, 5,40.00,50.00,Sunday
7,5.0
8,3.598560540775227
9,3.597753084350006
10,-199194.78110958455
11,3.543267703983563
12,3.542166941349743
13,-265270.2991394327
14,3.534721865549374
15,3.5335738606398674
16,-386641.20830800745
17,3.534721865549373
18,3.533573860639866
19,-386641.20830800745
20,5.258335668305053
21,10.7
22,119002212.42097138
23,2.3016041841426262
24,2.2880511988012047
25,-115015856.70435034
26,3.7234940155074367
27,3.7658931307745567
2,1,12,10, 0, 5,50.00,60.00,Sunday
7,5.0
8,3.6376387129373033
9,3.6368342895188883
10,-199624.88385162855
11,3.582145101233627
12,3.581050498929629
13,-265702.83683821856
14,3.573936147251438
15,3.5727962759600573
16,-386629.9679285283
17,3.573936147251438
18,3.5727962759600573
19,-386629.9679285294
20,5.260814350284907
21,10.7
22,115981266.78241506
23,2.3841613208914505
24,2.371046980465308
25,-111425076.79069804
26,3.7559106190272584
27,3.808202967627732
2,1,12,10, 0, 6, 0.00,10.00,Sunday
7,5.033333333333333
8,3.673765776614954
9,3.6730784837287223
10,-171712.06607082437
11,3.618351125038674
12,3.617375041812362
13,-237589.24230706214
14,3.610103773414412
15,3.6090819291403426
16,-347209.4529214225
17,3.610103773414412
18,3.6090819291403426
19,-347209.4529214225
20,5.256421512914607
21,10.7
22,114439383.89913401
23,2.4044146588018354
24,2.391278339110275
25,-110654593.99242204
26,3.7861353630100063
27,3.81786015429089
2,1,12,10, 0, 6,10.00,20.00,Sunday
7,5.066666666666667
8,3.6975289489683254
9,3.6968722403985317
10,-159595.0204073222
11,3.6417163439138314
12,3.640767581746428
13,-226017.60436166474
14,3.633458088491486
15,3.6324636135845476
16,-331009.82846387953
17,3.633458088491486
18,3.6324636135845476
19,-331009.82846387953
20,5.25460706254227
21,10.7
22,112985076.24406397
23,2.427402891285237
24,2.414344294808919
25,-110044094.58515233
26,3.8091983061740535
27,3.829233234007352
2,1,12,10, 0, 6,20.00,30.00,Sunday
7,5.1
8,3.7227781172528993
9,3.7221919260476812
10,-144139.82739213857
11,3.6667015212032887
12,3.66582226092095
13,-210849.8752040413
14,3.658436500151802
15,3.657511653409903
16,-309737.11989674345
17,3.658436500151802
18,3.657511653409903
19,-309737.11989674345
20,5.252096293257065
21,10.7
22,111680648.01410349
23,2.4493195918214603
24,2.436345466601768
25,-109318192.65829657
26,3.8256257736337695
27,3.839873963582156
2,1,12,10, 0, 6,30.00,40.00,Sunday
7,5.133333333333334
8,3.7471330902940525
9,3.7466159503911043
10,-128024.84990397959
11,3.6906498024094523
12,3.6898382771593385
13,-194975.74591802093
14,3.682365539505376
15,3.681508565420825
16,-287462.1634109184
17,3.6823655395053745
18,3.6815085654208235
19,-287462.1634109184
20,5.250055426979213
21,10.7
22,110568777.20201662
23,2.469893361603085
24,2.4570085253814637
25,-108547661.62826423
26,3.83797892140051
27,3.850042833738373
2,1,12,10, 0, 6,40.00,50.00,Sunday
7,5.166666666666667
8,3.771157916838782
9,3.7707138799475803
10,-111220.98833708865
11,3.7142194166377718
12,3.7134801830190285
13,-178336.82261383388
14,3.7059116426384264
15,3.7051271583296286
16,-264101.9559286153
17,3.705911642638426
18,3.705127158329628
19,-264101.95592861617
20,5.247640809675257
21,10.7
22,109537354.56949131
23,2.489937976620957
24,2.4771508575180805
25,-107718795.8346081
26,3.8484213921065225
27,3.85976516840918
2,1,12,10, 0, 6,50.00,60.00,Sunday
7,5.2
8,3.7949697430295934
9,3.7945985370989903
10,-94527.10088231321
11,3.7375342187414278
12,3.7368672394198863
13,-161757.10027443655
14,3.72919937544733
15,3.7284873674376464
16,-240817.4196616613
17,3.72919937544733
18,3.7284873674376464
19,-240817.4196616613
20,5.245793116755187
21,10.7
22,108582575.46555483
23,2.5095481446155414
24,2.4968583804666555
25,-106894370.34433214
26,3.8581571180931706
27,3.8695345124778417
2,1,12,10, 0, 7, 0.00,10.00,Sunday
7,5.283333333333334
8,3.8810140323739946
9,3.880889174639589
10,-64210.36259888412
11,3.8249472428173767
12,3.824546883677949
13,-127595.7686832257
14,3.816674783897482
15,3.816231256523416
16,-192450.0187840778
17,3.816674783897482
18,3.816231256523416
19,-192450.0187840778
20,5.256157630775667
21,10.7
22,104999175.30637258
23,2.6299066315906257
24,2.6180026150516063
25,-101838228.54633734
26,3.878358808975381
27,3.9362294436617407
2,1,12,10, 0, 7,10.00,20.00,Sunday
7,5.366666666666667
8,3.9854897315716356
9,3.985573161957616
10,-24363.11966522876
11,3.930182246707088
12,3.9300316798211172
13,-78035.9574704624
14,3.9218042781309754
15,3.921612984717491
16,-122189.47820832019
17,3.921804278130975
18,3.9216129847174908
19,-122189.47820832019
20,5.269145833877287
21,10.7
22,101417753.34297964
23,2.748082882711608
24,2.7367739627019496
25,-96804976.17720455
26,3.9151766263518697
27,4.004223348173344
2,1,12,10, 0, 7,20.00,30.00,Sunday
7,5.45
8,4.081770714005703
9,4.082031990294156
10,19590.904341209367
11,4.036958054132447
12,4.036991793920394
13,-36643.34328082633
14,4.029486614521796
15,4.029477620559686
16,-65467.504288416116
17,4.029486614521793
18,4.029477620559684
19,-65467.50428841639
20,5.283646257278983
21,10.7
22,97510832.95491272
23,2.8692374790830564
24,2.8585030916046725
25,-92024319.41835105
26,3.966246369661041
27,4.07433151149451
2,1,12,10, 0, 7,30.00,40.00,Sunday
7,5.533333333333333
8,4.180452576520708
9,4.180885821505658
10,57804.40122786109
11,4.140254102518102
12,4.14047741809693
13,8023.08803603588
14,4.132514005439655
15,4.132695278113843
16,-2031.8456156815741
17,4.132514005439653
18,4.1326952781138395
19,-2031.8456156832754
20,5.30279899811387
21,10.7
22,93539258.21900204
23,2.991420773964681
24,2.981214917489564
25,-87600125.2630102
26,4.026671057539179
27,4.146926644612468
2,1,12,10, 0, 7,40.00,50.00,Sunday
7,5.616666666666666
8,4.2793269094129665
9,4.2799194036634285
10,94035.32108749778
11,4.245227237636546
12,4.24564277895645
13,51154.225833637116
14,4.237695474382965
15,4.238070625058032
16,58601.83654322339
17,4.237695474382963
18,4.238070625058029
19,58601.83654322197
20,5.322653303032941
21,10.7
22,89416675.05913691
23,3.1145402626361958
24,3.1048439199840208
25,-83334414.00146183
26,4.092239955082245
27,4.220391244634865
2,1,12,10, 0, 7,50.00,60.00,Sunday
7,5.7
8,4.377796967008479
9,4.378535935489336
10,127601.16707449507
11,4.349906384866057
12,4.350500919702715
13,92088.77450977643
14,4.342522142323619
15,4.343076876458186
16,116134.07199907413
17,4.342522142323616
18,4.343076876458182
19,116134.07199907272
20,5.346133781002313
21,10.7
22,85405284.92483287
23,3.2368197403772814
24,3.227599798112538
25,-79319621.16444224
26,4.160529198815605
27,4.295142171823329
2,1,12,10, 0, 8, 0.00,10.00,Sunday
7,5.783333333333333
8,4.4533119314939995
9,4.454189433084839
10,168713.38200158876
11,4.424632089831549
12,4.425350347977073
13,132735.66368713413
14,4.417198355811969
15,4.417876522642336
16,173061.59566985857
17,4.417198355811968
18,4.417876522642335
19,173061.5956698566
20,5.361969771182881
21,10.7
22,83039335.4267619
23,3.2952927019252582
24,3.286115909476524
25,-77979235.5342888
26,4.224209138672482
27,4.334602749537338
2,1,12,10, 0, 8,10.00,20.00,Sunday
7,5.866666666666667
8,4.518752348184009
9,4.519733011442261
10,196420.21274976115
11,4.489767491762446
12,4.490587755196633
13,159975.79951081093
14,4.482299620796535
15,4.483079829605428
16,211200.5066816285
17,4.482299620796534
18,4.483079829605427
19,211200.50668162736
20,5.37959319948155
21,10.7
22,80817513.05090669
23,3.354577819333256
24,3.345543754624614
25,-76793302.58360033
26,4.279129352368991
27,4.374691476633398
2,1,12,10, 0, 8,20.00,30.00,Sunday
7,5.95
8,4.584679516304638
9,4.585795597857821
10,227088.64415770164
11,4.555394585384328
12,4.556348096970716
13,190147.54416896988
14,4.547906597130922
15,4.548820089687096
16,253444.16675136003
17,4.547906597130922
18,4.548820089687096
19,253444.16675135944
20,5.396442575788959
21,10.7
22,78762301.78573178
23,3.4128283244153166
24,3.40394822106108
25,-75484273.66072227
26,4.326214609223265
27,4.4139616879308265
2,1,12,10, 0, 8,30.00,40.00,Sunday
7,6.033333333333333
8,4.649539629464484
9,4.650795126886305
10,259317.63294773627
11,4.619950652381595
12,4.621041107354064
13,221814.50148410216
14,4.6124455041899015
15,4.613495903335114
16,297764.45889789826
17,4.6124455041899015
18,4.613495903335114
19,297764.45889789826
20,5.4133306022038825
21,10.7
22,76890854.13689901
23,3.4697995066455904
24,3.4610809299311325
25,-74107934.43517277
26,4.368271606850109
27,4.452584155292791
2,1,12,10, 0, 8,40.00,50.00,Sunday
7,6.116666666666667
8,4.7137853924110145
9,4.715186508459667
10,292772.6573357834
11,4.683892727784223
12,4.685126185923044
13,254673.0740447024
14,4.676373318739184
15,4.6775666636515165
16,343746.45887467265
17,4.676373318739184
18,4.6775666636515165
19,343746.45887467265
20,5.429787762885905
21,10.7
22,75112148.34404275
23,3.526113113428864
24,3.5175645618707314
25,-72669718.229047
26,4.407691259029317
27,4.490658233812347
2,1,12,10, 0, 8,50.00,60.00,Sunday
7,6.2
8,4.777607870479107
9,4.779156894382341
10,326670.94264500093
11,4.747408025491596
12,4.748786690688352
13,287957.04021297005
14,4.73987496133611
15,4.741213441717819
16,390320.8115931855
17,4.739874961336109
18,4.741213441717818
19,390320.8115931855
20,5.446530769360025
21,10.7
22,73408296.97627759
23,3.5819607808401206
24,3.573583822942151
25,-71221217.08375874
26,4.445884684084733
27,4.5286217375983275
2,1,12,10, 0, 9, 0.00,10.00,Sunday
7,6.25
8,4.842798977756114
9,4.844401764057826
10,338375.3122358954
11,4.81996796953324
12,4.821452225284941
13,308284.60893390025
14,4.812595353555623
15,4.814040374657208
16,418981.33634266944
17,4.812595353555622
18,4.814040374657207
19,418981.3363426688
20,5.468570103829011
21,10.7
22,70564435.50631487
23,3.682788154687435
24,3.674889985902539
25,-67888777.69131003
26,4.487669351576719
27,4.590647415349497
2,1,12,10, 0, 9,10.00,20.00,Sunday
7,6.300000000000001
8,4.915227446503596
9,4.916932712132871
10,358729.896166281
11,4.899196464096589
12,4.900820166868416
13,337306.1444307215
14,4.891973493920308
15,4.893558649772589
16,459837.34167815204
17,4.891973493920325
18,4.893558649772607
19,459837.341678151
20,5.4916358940395975
21,10.7
22,67803266.54448013
23,3.780637813679405
24,3.7731193021122014
25,-64653572.45490629
26,4.535676276682293
27,4.652171834483146
2,1,12,10, 0, 9,20.00,30.00,Sunday
7,6.35
8,4.986339903314191
9,4.98812127919828
10,376633.17919244274
11,4.977072820288588
12,4.978810844225971
13,363936.3150637368
14,4.969985164529938
15,4.971685309304533
16,497341.0585504566
17,4.969985164529948
18,4.971685309304543
19,497341.0585504668
20,5.5150003344853795
21,10.7
22,64977814.50091462
23,3.87783204749055
24,3.870678633948963
25,-61576646.46199672
26,4.58902651373636
27,4.713446029965528
2,1,12,10, 0, 9,30.00,40.00,Sunday
7,6.4
8,5.068618053810111
9,5.070496989144591
10,394240.1211532323
11,5.0660417712922925
12,5.067915442950156
13,390257.7345618287
14,5.059156457247648
15,5.060993398484265
16,534518.6815517908
17,5.059156457247652
18,5.0609933984842685
19,534518.6815517965
20,5.542928748030477
21,10.7
22,61617083.93616048
23,3.995400122430599
24,3.988727644160123
25,-57848921.36243167
26,4.647626352250652
27,4.78710828160225
2,1,12,10, 0, 9,40.00,50.00,Sunday
7,6.45
8,5.14957792380804
9,5.151542025496407
10,414206.98817002145
11,5.153416870917803
12,5.155412410013401
13,418707.01278287004
14,5.1466977864606385
15,5.148657472391424
16,574648.7288516315
17,5.146697786460639
18,5.148657472391425
19,574648.7288516333
20,5.570090321624868
21,10.7
22,58421412.12370022
23,4.104431101852837
24,4.098140462503298
25,-54510398.206976846
26,4.7102218250535905
27,4.85630781905438
2,1,12,10, 0, 9,50.00,60.00,Sunday
7,6.5
8,5.228618478159164
9,5.230649861509691
10,430346.3950402767
11,5.238615979896595
12,5.240714345821581
13,443057.4052907055
14,5.232055664897101
15,5.234119084351264
16,609033.022668576
17,5.232055664897101
18,5.234119084351264
19,609033.0226685766
20,5.599404576521815
21,10.7
22,55315134.771496005
23,4.2118240532867866
24,4.205900007406882
25,-51405884.56648933
26,4.7750563246861395
27,4.925618868657193
2,1,12,10, 0,10, 0.00,10.00,Sunday
7,6.616666666666667
8,5.366873558166988
9,5.369188427349962
10,470376.27722212963
11,5.3894537378260425
12,5.3919189340599365
13,499416.7276951472
14,5.383177475575041
15,5.385609413501549
16,688401.9850835837
17,5.383177475575041
18,5.385609413501549
19,688401.9850835837
20,5.639627213889556
21,10.7
22,49860878.550210774
23,4.404872748140294
24,4.399860999983795
25,-45055178.587233685
26,4.848356546488724
27,5.04419610632065
2,1,12,10, 0,10,10.00,20.00,Sunday
7,6.733333333333334
8,5.513042450078366
9,5.5156089527795356
10,524469.6992217142
11,5.546756318342479
12,5.549538876915434
13,569100.3007726353
14,5.540719700713214
15,5.543470310005285
16,786402.708862328
17,5.540719700713214
18,5.543470310005285
19,786402.708862328
20,5.682791411276087
21,10.7
22,44573995.7875947
23,4.593125153283414
24,4.588821027007927
25,-39036670.19659234
26,4.933495133192737
27,5.1623149543116895
2,1,12,10, 0,10,20.00,30.00,Sunday
7,6.85
8,5.657323443385006
9,5.660107870692314
10,574945.0924907418
11,5.701533316140855
12,5.704597820394562
13,634437.3749165436
14,5.695713626863777
15,5.698747491258318
16,878305.7768720345
17,5.695713626863777
18,5.698747491258318
19,878305.7768720345
20,5.7263047332656365
21,10.7
22,39211965.5690772
23,4.778732483468574
24,4.775092893921736
25,-33413879.812095646
26,5.0281649666141455
27,5.279208888877475
2,1,12,10, 0,10,30.00,40.00,Sunday
7,6.966666666666667
8,5.819203950302724
9,5.822252355059474
10,627821.7790263705
11,5.8701765825584244
12,5.8735433518749645
13,697596.7395878227
14,5.864659650229216
15,5.867997760512246
16,967311.1608915734
17,5.866418582363635
18,5.869769774833102
19,970462.3389163539
20,5.77757040253716
21,10.7
22,33201136.689359475
23,4.99043088686979
24,4.987578047231207
25,-27204752.906020477
26,5.130317574288251
27,5.412919671201848
2,1,12,10, 0,10,40.00,50.00,Sunday
7,7.083333333333333
8,5.9829547539332815
9,5.986254979227355
10,684462.6315614374
11,6.039629835853698
12,6.043284408421221
13,762881.9912497082
14,6.034391541695601
15,6.038019229258893
16,1059290.8395174013
17,6.037539127672249
18,6.041188011416493
19,1065248.1845146401
20,5.828761781212941
21,10.7
22,27206298.51673538
23,5.198786325264902
24,5.196616338997338
25,-21417089.05744961
26,5.237001262794967
27,5.545081905542937
2,1,12,10, 0,10,50.00,60.00,Sunday
7,7.2
8,6.144656726015423
9,6.148183814355854
10,737041.4249512295
11,6.205929061573306
12,6.209839825304588
13,822607.2302876209
14,6.2009526812920726
15,6.2048382675667035
16,1143460.9535407997
17,6.205361093131549
18,6.209275646803771
19,1151973.205542277
20,5.8840468453505945
21,10.7
22,21431378.673749067
23,5.404256808176035
24,5.4026873930541965
25,-16327720.333635766
26,5.344164909094393
27,5.67762985101428
2,1,12,10, 0,11, 0.00,10.00,Sunday
7,7.283333333333333
8,6.266778591356089
9,6.270511953641662
10,800499.2097739065
11,6.305744637695168