Program Version,EnergyPlus, Version 25.1.0-1c11a3d85f, YMD=2026.04.14 13:10
1,5,Environment Title[],Latitude[deg],Longitude[deg],Time Zone[],Elevation[m]
2,8,Day of Simulation[],Month[],Day of Month[],DST Indicator[1=yes 0=no],Hour[],StartMinute[],EndMinute[],DayType
3,5,Cumulative Day of Simulation[],Month[],Day of Month[],DST Indicator[1=yes 0=no],DayType  ! When Daily Report Variables Requested
4,2,Cumulative Days of Simulation[],Month[]  ! When Monthly Report Variables Requested
5,1,Cumulative Days of Simulation[] ! When Run Period Report Variables Requested
6,1,Calendar Year of Simulation[] ! When Annual Report Variables Requested
7,1,Environment,Site Outdoor Air Drybulb Temperature [C] !TimeStep
14,1,GREENHOUSE,Zone Mean Air Temperature [C] !TimeStep
End of Data Dictionary
1,RUN1,  45.73,   5.08,   1.00, 240.00
2,1,12, 1, 0, 1, 0.00, 1.00,Sunday
7,-0.008333333333333333
14,-0.28762419785400745
2,1,12, 1, 0, 1, 1.00, 2.00,Sunday
7,-0.016666666666666666
14,-0.28869303985862177
2,1,12, 1, 0, 1, 2.00, 3.00,Sunday
7,-0.025
14,-0.290112466923309
2,1,12, 1, 0, 1, 3.00, 4.00,Sunday
7,-0.03333333333333333
14,-0.29189554923735167
2,1,12, 1, 0, 1, 4.00, 5.00,Sunday
7,-0.041666666666666664
14,-0.2940343708087327
2,1,12, 1, 0, 1, 5.00, 6.00,Sunday
7,-0.05
14,-0.29650443431429196
2,1,12, 1, 0, 1, 6.00, 7.00,Sunday
7,-0.058333333333333334
14,-0.29927702783188925
2,1,12, 1, 0, 1, 7.00, 8.00,Sunday
7,-0.06666666666666667
14,-0.30232273966865786
2,1,12, 1, 0, 1, 8.00, 9.00,Sunday
7,-0.075
14,-0.30561848283721565
2,1,12, 1, 0, 1, 9.00,10.00,Sunday
7,-0.08333333333333333
14,-0.3091460672387261
2,1,12, 1, 0, 1,10.00,11.00,Sunday
7,-0.09166666666666666
14,-0.31288988667337364
2,1,12, 1, 0, 1,11.00,12.00,Sunday
7,-0.1
14,-0.3168356134293904
2,1,12, 1, 0, 1,12.00,13.00,Sunday
7,-0.10833333333333334
14,-0.32096975622891616
2,1,12, 1, 0, 1,13.00,14.00,Sunday
7,-0.11666666666666667
14,-0.32527959321310873
2,1,12, 1, 0, 1,14.00,15.00,Sunday
7,-0.125
14,-0.32975318519418273
2,1,12, 1, 0, 1,15.00,16.00,Sunday
7,-0.13333333333333333
14,-0.3343793699549592
2,1,12, 1, 0, 1,16.00,17.00,Sunday
7,-0.14166666666666666
14,-0.33914772982763985
2,1,12, 1, 0, 1,17.00,18.00,Sunday
7,-0.15
14,-0.3440485468433564
2,1,12, 1, 0, 1,18.00,19.00,Sunday
7,-0.15833333333333333
14,-0.34907275635673257
2,1,12, 1, 0, 1,19.00,20.00,Sunday
7,-0.16666666666666666
14,-0.35421190347359166
2,1,12, 1, 0, 1,20.00,21.00,Sunday
7,-0.175
14,-0.3594581029302158
2,1,12, 1, 0, 1,21.00,22.00,Sunday
7,-0.18333333333333332
14,-0.3648040019356249
2,1,12, 1, 0, 1,22.00,23.00,Sunday
7,-0.19166666666666668
14,-0.37024274546303837
2,1,12, 1, 0, 1,23.00,24.00,Sunday
7,-0.2
14,-0.37576794368568667
2,1,12, 1, 0, 1,24.00,25.00,Sunday
7,-0.20833333333333334
14,-0.3813736413973127
2,1,12, 1, 0, 1,25.00,26.00,Sunday
7,-0.21666666666666667
14,-0.38705428931468533
2,1,12, 1, 0, 1,26.00,27.00,Sunday
7,-0.225
14,-0.3928047171705603
2,1,12, 1, 0, 1,27.00,28.00,Sunday
7,-0.23333333333333334
14,-0.3986201085037576
2,1,12, 1, 0, 1,28.00,29.00,Sunday
7,-0.24166666666666667
14,-0.4044959770517218
2,1,12, 1, 0, 1,29.00,30.00,Sunday
7,-0.25
14,-0.4104281446530483
2,1,12, 1, 0, 1,30.00,31.00,Sunday
7,-0.25833333333333336
14,-0.4164127205709331
2,1,12, 1, 0, 1,31.00,32.00,Sunday
7,-0.26666666666666666
14,-0.4224460821527999
2,1,12, 1, 0, 1,32.00,33.00,Sunday
7,-0.275
14,-0.4285248567457509
2,1,12, 1, 0, 1,33.00,34.00,Sunday
7,-0.2833333333333333
14,-0.4346459047913828
2,1,12, 1, 0, 1,34.00,35.00,Sunday
7,-0.2916666666666667
14,-0.44080630402787757
2,1,12, 1, 0, 1,35.00,36.00,Sunday
7,-0.3
14,-0.4470033347309605
2,1,12, 1, 0, 1,36.00,37.00,Sunday
7,-0.30833333333333335
14,-0.4532344659287072
2,1,12, 1, 0, 1,37.00,38.00,Sunday
7,-0.31666666666666665
14,-0.45949734252926827
2,1,12, 1, 0, 1,38.00,39.00,Sunday
7,-0.325
14,-0.4657897733038947
2,1,12, 1, 0, 1,39.00,40.00,Sunday
7,-0.3333333333333333
14,-0.4721097196706983
2,1,12, 1, 0, 1,40.00,41.00,Sunday
7,-0.3416666666666667
14,-0.4784552852281263
2,1,12, 1, 0, 1,41.00,42.00,Sunday
7,-0.35
14,-0.48482470598975874
2,1,12, 1, 0, 1,42.00,43.00,Sunday
7,-0.35833333333333334
14,-0.4912163412752329
2,1,12, 1, 0, 1,43.00,44.00,Sunday
7,-0.36666666666666664
14,-0.4976286652147558
2,1,12, 1, 0, 1,44.00,45.00,Sunday
7,-0.375
14,-0.5040602677959689
2,1,12, 1, 0, 1,45.00,46.00,Sunday
7,-0.38333333333333336
14,-0.5105098309239371
2,1,12, 1, 0, 1,46.00,47.00,Sunday
7,-0.39166666666666666
14,-0.5169761237820947
2,1,12, 1, 0, 1,47.00,48.00,Sunday
7,-0.4
14,-0.5234579987130833
2,1,12, 1, 0, 1,48.00,49.00,Sunday
7,-0.4083333333333333
14,-0.5299543917001427
2,1,12, 1, 0, 1,49.00,50.00,Sunday
7,-0.4166666666666667
14,-0.5364643162891053
2,1,12, 1, 0, 1,50.00,51.00,Sunday
7,-0.425
14,-0.5429868567099737
2,1,12, 1, 0, 1,51.00,52.00,Sunday
7,-0.43333333333333335
14,-0.5495211620139157
2,1,12, 1, 0, 1,52.00,53.00,Sunday
7,-0.44166666666666665
14,-0.5560664412257628
2,1,12, 1, 0, 1,53.00,54.00,Sunday
7,-0.45
14,-0.5626219591275992
2,1,12, 1, 0, 1,54.00,55.00,Sunday
7,-0.4583333333333333
14,-0.5691870324083911
2,1,12, 1, 0, 1,55.00,56.00,Sunday
7,-0.4666666666666667
14,-0.575761026069935
2,1,12, 1, 0, 1,56.00,57.00,Sunday
7,-0.475
14,-0.5823433500598088
2,1,12, 1, 0, 1,57.00,58.00,Sunday
7,-0.48333333333333334
14,-0.5889334561247088
2,1,12, 1, 0, 1,58.00,59.00,Sunday
7,-0.49166666666666664
14,-0.5955308348772699
2,1,12, 1, 0, 1,59.00,60.00,Sunday
7,-0.5
14,-0.6021350130657357
2,1,12, 1, 0, 2, 0.00, 1.00,Sunday
7,-0.505
14,-0.6086792705658667
2,1,12, 1, 0, 2, 1.00, 2.00,Sunday
7,-0.51
14,-0.6150416854472512
2,1,12, 1, 0, 2, 2.00, 3.00,Sunday
7,-0.515
14,-0.6211640617806311
2,1,12, 1, 0, 2, 3.00, 4.00,Sunday
7,-0.52
14,-0.6270417621317262
2,1,12, 1, 0, 2, 4.00, 5.00,Sunday
7,-0.525
14,-0.6326923578553619
2,1,12, 1, 0, 2, 5.00, 6.00,Sunday
7,-0.53
14,-0.6381367686922854
2,1,12, 1, 0, 2, 6.00, 7.00,Sunday
7,-0.535
14,-0.6433930795352963
2,1,12, 1, 0, 2, 7.00, 8.00,Sunday
7,-0.54
14,-0.6484762480781728
2,1,12, 1, 0, 2, 8.00, 9.00,Sunday
7,-0.5449999999999999
14,-0.653399187270694
2,1,12, 1, 0, 2, 9.00,10.00,Sunday
7,-0.55
14,-0.6581735833906415
2,1,12, 1, 0, 2,10.00,11.00,Sunday
7,-0.5549999999999999
14,-0.6628102619354338
2,1,12, 1, 0, 2,11.00,12.00,Sunday
7,-0.56
14,-0.6673193028324251
2,1,12, 1, 0, 2,12.00,13.00,Sunday
7,-0.565
14,-0.671710076151923
2,1,12, 1, 0, 2,13.00,14.00,Sunday
7,-0.57
14,-0.675991272148846
2,1,12, 1, 0, 2,14.00,15.00,Sunday
7,-0.575
14,-0.6801709409210027
2,1,12, 1, 0, 2,15.00,16.00,Sunday
7,-0.5800000000000001
14,-0.6842565374362325
2,1,12, 1, 0, 2,16.00,17.00,Sunday
7,-0.585
14,-0.6882549662924708
2,1,12, 1, 0, 2,17.00,18.00,Sunday
7,-0.59
14,-0.6921726234898342
2,1,12, 1, 0, 2,18.00,19.00,Sunday
7,-0.595
14,-0.6960154346752487
2,1,12, 1, 0, 2,19.00,20.00,Sunday
7,-0.6000000000000001
14,-0.6997888901705349
2,1,12, 1, 0, 2,20.00,21.00,Sunday
7,-0.605
14,-0.7034980772132727
2,1,12, 1, 0, 2,21.00,22.00,Sunday
7,-0.61
14,-0.707147709739307
2,1,12, 1, 0, 2,22.00,23.00,Sunday
7,-0.615
14,-0.710742155936517
2,1,12, 1, 0, 2,23.00,24.00,Sunday
7,-0.6200000000000001
14,-0.7142854637460514
2,1,12, 1, 0, 2,24.00,25.00,Sunday
7,-0.625
14,-0.7177813844639805
2,1,12, 1, 0, 2,25.00,26.00,Sunday
7,-0.63
14,-0.7212333945846063
2,1,12, 1, 0, 2,26.00,27.00,Sunday
7,-0.635
14,-0.7246447160179228
2,1,12, 1, 0, 2,27.00,28.00,Sunday
7,-0.64
14,-0.7280183348047661
2,1,12, 1, 0, 2,28.00,29.00,Sunday
7,-0.645
14,-0.7313616152253611
2,1,12, 1, 0, 2,29.00,30.00,Sunday
7,-0.65
14,-0.7346827806171269
2,1,12, 1, 0, 2,30.00,31.00,Sunday
7,-0.655
14,-0.7379883816961835
2,1,12, 1, 0, 2,31.00,32.00,Sunday
7,-0.66
14,-0.7412816304881349
2,1,12, 1, 0, 2,32.00,33.00,Sunday
7,-0.665
14,-0.7445638370066938
2,1,12, 1, 0, 2,33.00,34.00,Sunday
7,-0.67
14,-0.7478356714416868
2,1,12, 1, 0, 2,34.00,35.00,Sunday
7,-0.675
14,-0.7510977247424938
2,1,12, 1, 0, 2,35.00,36.00,Sunday
7,-0.6799999999999999
14,-0.7543506321657402
2,1,12, 1, 0, 2,36.00,37.00,Sunday
7,-0.685
14,-0.7575950463803094
2,1,12, 1, 0, 2,37.00,38.00,Sunday
7,-0.6900000000000001
14,-0.7608315972915366
2,1,12, 1, 0, 2,38.00,39.00,Sunday
7,-0.6950000000000001
14,-0.7640608726725524
2,1,12, 1, 0, 2,39.00,40.00,Sunday
7,-0.7
14,-0.7672834150366098
2,1,12, 1, 0, 2,40.00,41.00,Sunday
7,-0.7050000000000001
14,-0.7704997250026305
2,1,12, 1, 0, 2,41.00,42.00,Sunday
7,-0.71
14,-0.7737102656222576
2,1,12, 1, 0, 2,42.00,43.00,Sunday
7,-0.7150000000000001
14,-0.7769154659484412
2,1,12, 1, 0, 2,43.00,44.00,Sunday
7,-0.72
14,-0.7801157238112956
2,1,12, 1, 0, 2,44.00,45.00,Sunday
7,-0.7250000000000001
14,-0.7833114081265959
2,1,12, 1, 0, 2,45.00,46.00,Sunday
7,-0.73
14,-0.7865028609658279
2,1,12, 1, 0, 2,46.00,47.00,Sunday
7,-0.7350000000000001
14,-0.7896903994814127
2,1,12, 1, 0, 2,47.00,48.00,Sunday
7,-0.7400000000000001
14,-0.7928743177093917
2,1,12, 1, 0, 2,48.00,49.00,Sunday
7,-0.745
14,-0.7960548882512235
2,1,12, 1, 0, 2,49.00,50.00,Sunday
7,-0.75
14,-0.7992323638365637
2,1,12, 1, 0, 2,50.00,51.00,Sunday
7,-0.7550000000000001
14,-0.802406978772259
2,1,12, 1, 0, 2,51.00,52.00,Sunday
7,-0.76
14,-0.8055789502852457
2,1,12, 1, 0, 2,52.00,53.00,Sunday
7,-0.765
14,-0.8087484797672095
2,1,12, 1, 0, 2,53.00,54.00,Sunday
7,-0.77
14,-0.811915753928358
2,1,12, 1, 0, 2,54.00,55.00,Sunday
7,-0.7750000000000001
14,-0.8150809458671182
2,1,12, 1, 0, 2,55.00,56.00,Sunday
7,-0.78
14,-0.8182442160618971
2,1,12, 1, 0, 2,56.00,57.00,Sunday
7,-0.785
14,-0.8214057132906517
2,1,12, 1, 0, 2,57.00,58.00,Sunday
7,-0.79
14,-0.8245655754834333
2,1,12, 1, 0, 2,58.00,59.00,Sunday
7,-0.7949999999999999
14,-0.82772393051287
2,1,12, 1, 0, 2,59.00,60.00,Sunday
7,-0.8
14,-0.8308808969270292
2,1,12, 1, 0, 3, 0.00, 1.00,Sunday
7,-0.8033333333333333
14,-0.834028250156638
2,1,12, 1, 0, 3, 1.00, 2.00,Sunday
7,-0.8066666666666668
14,-0.8371506163107819
2,1,12, 1, 0, 3, 2.00, 3.00,Sunday
7,-0.81
14,-0.8402405177190279
2,1,12, 1, 0, 3, 3.00, 4.00,Sunday
7,-0.8133333333333334
14,-0.8432973678447061
2,1,12, 1, 0, 3, 4.00, 5.00,Sunday
7,-0.8166666666666668
14,-0.8463234943429998
2,1,12, 1, 0, 3, 5.00, 6.00,Sunday
7,-0.8200000000000001
14,-0.849321690090981
2,1,12, 1, 0, 3, 6.00, 7.00,Sunday
7,-0.8233333333333334
14,-0.8522943909620904
2,1,12, 1, 0, 3, 7.00, 8.00,Sunday
7,-0.8266666666666667
14,-0.8552436251840916
2,1,12, 1, 0, 3, 8.00, 9.00,Sunday
7,-0.8300000000000001
14,-0.8581711494726584
2,1,12, 1, 0, 3, 9.00,10.00,Sunday
7,-0.8333333333333334
14,-0.8610785549510219
2,1,12, 1, 0, 3,10.00,11.00,Sunday
7,-0.8366666666666667
14,-0.863967315430362
2,1,12, 1, 0, 3,11.00,12.00,Sunday
7,-0.8400000000000001
14,-0.8668388030429536
2,1,12, 1, 0, 3,12.00,13.00,Sunday
7,-0.8433333333333334
14,-0.8696942932866062
2,1,12, 1, 0, 3,13.00,14.00,Sunday
7,-0.8466666666666667
14,-0.8725349691830168
2,1,12, 1, 0, 3,14.00,15.00,Sunday
7,-0.8500000000000001
14,-0.8753619266413876
2,1,12, 1, 0, 3,15.00,16.00,Sunday
7,-0.8533333333333335
14,-0.8781761805197089
2,1,12, 1, 0, 3,16.00,17.00,Sunday
7,-0.8566666666666667
14,-0.8809786706579276
2,1,12, 1, 0, 3,17.00,18.00,Sunday
7,-0.8599999999999999
14,-0.8837702675241754
2,1,12, 1, 0, 3,18.00,19.00,Sunday
7,-0.8633333333333334
14,-0.8865517773982965
2,1,12, 1, 0, 3,19.00,20.00,Sunday
7,-0.8666666666666667
14,-0.8893239471298762
2,1,12, 1, 0, 3,20.00,21.00,Sunday
7,-0.87
14,-0.8920874685252869
2,1,12, 1, 0, 3,21.00,22.00,Sunday
7,-0.8733333333333333
14,-0.8948429824058927
2,1,12, 1, 0, 3,22.00,23.00,Sunday
7,-0.8766666666666667
14,-0.8975910823670087
2,1,12, 1, 0, 3,23.00,24.00,Sunday
7,-0.88
14,-0.9003323182604663
2,1,12, 1, 0, 3,24.00,25.00,Sunday
7,-0.8833333333333333
14,-0.9030671994205625
2,1,12, 1, 0, 3,25.00,26.00,Sunday
7,-0.8866666666666667
14,-0.9057961976520147
2,1,12, 1, 0, 3,26.00,27.00,Sunday
7,-0.8900000000000001
14,-0.9085197499972675
2,1,12, 1, 0, 3,27.00,28.00,Sunday
7,-0.8933333333333333
14,-0.911238261299425
2,1,12, 1, 0, 3,28.00,29.00,Sunday
7,-0.8966666666666667
14,-0.9139521065759507
2,1,12, 1, 0, 3,29.00,30.00,Sunday
7,-0.9
14,-0.9166616332171561
2,1,12, 1, 0, 3,30.00,31.00,Sunday
7,-0.9033333333333333
14,-0.9193671630225646
2,1,12, 1, 0, 3,31.00,32.00,Sunday
7,-0.9066666666666667
14,-0.9220689940870124
2,1,12, 1, 0, 3,32.00,33.00,Sunday
7,-0.91
14,-0.9247674025476073
2,1,12, 1, 0, 3,33.00,34.00,Sunday
7,-0.9133333333333333
14,-0.9274626442018364
2,1,12, 1, 0, 3,34.00,35.00,Sunday
7,-0.9166666666666667
14,-0.9301549560063365
2,1,12, 1, 0, 3,35.00,36.00,Sunday
7,-0.92
14,-0.9328445574651845
2,1,12, 1, 0, 3,36.00,37.00,Sunday
7,-0.9233333333333333
14,-0.9355316519158511
2,1,12, 1, 0, 3,37.00,38.00,Sunday
7,-0.9266666666666667
14,-0.9382164277202873
2,1,12, 1, 0, 3,38.00,39.00,Sunday
7,-0.9299999999999999
14,-0.9408990593682125
2,1,12, 1, 0, 3,39.00,40.00,Sunday
7,-0.9333333333333333
14,-0.9435797084991275
2,1,12, 1, 0, 3,40.00,41.00,Sunday
7,-0.9366666666666668
14,-0.9462585248490121
2,1,12, 1, 0, 3,41.00,42.00,Sunday
7,-0.94
14,-0.9489356564452005
2,1,12, 1, 0, 3,42.00,43.00,Sunday
7,-0.9433333333333334
14,-0.9516112330871456
2,1,12, 1, 0, 3,43.00,44.00,Sunday
7,-0.9466666666666667
14,-0.9542853696048843
2,1,12, 1, 0, 3,44.00,45.00,Sunday
7,-0.95
14,-0.9569581691815905
2,1,12, 1, 0, 3,45.00,46.00,Sunday
7,-0.9533333333333334
14,-0.9596297303844198
2,1,12, 1, 0, 3,46.00,47.00,Sunday
7,-0.9566666666666667
14,-0.9623001471997793
2,1,12, 1, 0, 3,47.00,48.00,Sunday
7,-0.96
14,-0.9649695078739883
2,1,12, 1, 0, 3,48.00,49.00,Sunday
7,-0.9633333333333334
14,-0.9676378943948457
2,1,12, 1, 0, 3,49.00,50.00,Sunday
7,-0.9666666666666667
14,-0.970305382627033
2,1,12, 1, 0, 3,50.00,51.00,Sunday
7,-0.97
14,-0.972972042734996
2,1,12, 1, 0, 3,51.00,52.00,Sunday
7,-0.9733333333333334
14,-0.9756379396495618
2,1,12, 1, 0, 3,52.00,53.00,Sunday
7,-0.9766666666666667
14,-0.9783031334905891
2,1,12, 1, 0, 3,53.00,54.00,Sunday
7,-0.98
14,-0.9809676799373575
2,1,12, 1, 0, 3,54.00,55.00,Sunday
7,-0.9833333333333333
14,-0.9836316305595119
2,1,12, 1, 0, 3,55.00,56.00,Sunday
7,-0.9866666666666667
14,-0.9862947168926315
2,1,12, 1, 0, 3,56.00,57.00,Sunday
7,-0.99
14,-0.9889565944607295
2,1,12, 1, 0, 3,57.00,58.00,Sunday
7,-0.9933333333333333
14,-0.9916170180153706
2,1,12, 1, 0, 3,58.00,59.00,Sunday
7,-0.9966666666666667
14,-0.994275957216644
2,1,12, 1, 0, 3,59.00,60.00,Sunday
7,-1.0
14,-0.9969334985412437
2,1,12, 1, 0, 4, 0.00, 1.00,Sunday
7,-1.0
14,-0.9995566004827392
2,1,12, 1, 0, 4, 1.00, 2.00,Sunday
7,-1.0
14,-1.00208409109265
2,1,12, 1, 0, 4, 2.00, 3.00,Sunday
7,-1.0
14,-1.0044866510661314
2,1,12, 1, 0, 4, 3.00, 4.00,Sunday
7,-1.0
14,-1.0067621181453994
2,1,12, 1, 0, 4, 4.00, 5.00,Sunday
7,-1.0
14,-1.0089196591846692
2,1,12, 1, 0, 4, 5.00, 6.00,Sunday
7,-1.0
14,-1.010970165434979
2,1,12, 1, 0, 4, 6.00, 7.00,Sunday
7,-1.0
14,-1.0129230789118386
2,1,12, 1, 0, 4, 7.00, 8.00,Sunday
7,-1.0
14,-1.0147862296064385
2,1,12, 1, 0, 4, 8.00, 9.00,Sunday
7,-1.0
14,-1.016566383889078
2,1,12, 1, 0, 4, 9.00,10.00,Sunday
7,-1.0
14,-1.0182696629059993
2,1,12, 1, 0, 4,10.00,11.00,Sunday
7,-1.0
14,-1.01990173140482
2,1,12, 1, 0, 4,11.00,12.00,Sunday
7,-1.0
14,-1.0214678584176595
2,1,12, 1, 0, 4,12.00,13.00,Sunday
7,-1.0
14,-1.0229703377842576
2,1,12, 1, 0, 4,13.00,14.00,Sunday
7,-1.0
14,-1.0244130965581697
2,1,12, 1, 0, 4,14.00,15.00,Sunday
7,-1.0
14,-1.0258011540751764
2,1,12, 1, 0, 4,15.00,16.00,Sunday
7,-1.0
14,-1.0271402228603277
2,1,12, 1, 0, 4,16.00,17.00,Sunday
7,-1.0
14,-1.0284349469487135
2,1,12, 1, 0, 4,17.00,18.00,Sunday
7,-1.0
14,-1.029688981835258
2,1,12, 1, 0, 4,18.00,19.00,Sunday
7,-1.0
14,-1.0309053792570175
2,1,12, 1, 0, 4,19.00,20.00,Sunday
7,-1.0
14,-1.0320868719027554
2,1,12, 1, 0, 4,20.00,21.00,Sunday
7,-1.0
14,-1.0332359940976887
2,1,12, 1, 0, 4,21.00,22.00,Sunday
7,-1.0
14,-1.0343551139491338
2,1,12, 1, 0, 4,22.00,23.00,Sunday
7,-1.0
14,-1.0354464377958
2,1,12, 1, 0, 4,23.00,24.00,Sunday
7,-1.0
14,-1.0365120134847474
2,1,12, 1, 0, 4,24.00,25.00,Sunday
7,-1.0
14,-1.0375537379090851
2,1,12, 1, 0, 4,25.00,26.00,Sunday
7,-1.0
14,-1.038573367158016
2,1,12, 1, 0, 4,26.00,27.00,Sunday
7,-1.0
14,-1.0395725271183571
2,1,12, 1, 0, 4,27.00,28.00,Sunday
7,-1.0
14,-1.040552723450637
2,1,12, 1, 0, 4,28.00,29.00,Sunday
7,-1.0
14,-1.0415153506868822
2,1,12, 1, 0, 4,29.00,30.00,Sunday
7,-1.0
14,-1.0424617005263093
2,1,12, 1, 0, 4,30.00,31.00,Sunday
7,-1.0
14,-1.0433929694567423
2,1,12, 1, 0, 4,31.00,32.00,Sunday
7,-1.0
14,-1.0443102657955854
2,1,12, 1, 0, 4,32.00,33.00,Sunday
7,-1.0
14,-1.0452146162091795
2,1,12, 1, 0, 4,33.00,34.00,Sunday
7,-1.0
14,-1.046106971751174
2,1,12, 1, 0, 4,34.00,35.00,Sunday
7,-1.0
14,-1.0469882134540547
2,1,12, 1, 0, 4,35.00,36.00,Sunday
7,-1.0
14,-1.04785915750549
2,1,12, 1, 0, 4,36.00,37.00,Sunday
7,-1.0
14,-1.0487205600401286
2,1,12, 1, 0, 4,37.00,38.00,Sunday
7,-1.0
14,-1.0495731215754318
2,1,12, 1, 0, 4,38.00,39.00,Sunday
7,-1.0
14,-1.0504174911181507
2,1,12, 1, 0, 4,39.00,40.00,Sunday
7,-1.0
14,-1.051254269966208
2,1,12, 1, 0, 4,40.00,41.00,Sunday
7,-1.0
14,-1.0520840152285802
2,1,12, 1, 0, 4,41.00,42.00,Sunday
7,-1.0
14,-1.0529072430844608
2,1,12, 1, 0, 4,42.00,43.00,Sunday
7,-1.0
14,-1.0537244318010377
2,1,12, 1, 0, 4,43.00,44.00,Sunday
7,-1.0
14,-1.0545360245277822
2,1,12, 1, 0, 4,44.00,45.00,Sunday
7,-1.0
14,-1.055344477974093
2,1,12, 1, 0, 4,45.00,46.00,Sunday
7,-1.0
14,-1.056150625244194
2,1,12, 1, 0, 4,46.00,47.00,Sunday
7,-1.0
14,-1.056954142196106
2,1,12, 1, 0, 4,47.00,48.00,Sunday
7,-1.0
14,-1.0577520447981625
2,1,12, 1, 0, 4,48.00,49.00,Sunday
7,-1.0
14,-1.0585433908768604
2,1,12, 1, 0, 4,49.00,50.00,Sunday
7,-1.0
14,-1.0593288119118958
2,1,12, 1, 0, 4,50.00,51.00,Sunday
7,-1.0
14,-1.060109908701562
2,1,12, 1, 0, 4,51.00,52.00,Sunday
7,-1.0
14,-1.060887770714077
2,1,12, 1, 0, 4,52.00,53.00,Sunday
7,-1.0
14,-1.061662940874306
2,1,12, 1, 0, 4,53.00,54.00,Sunday
7,-1.0
14,-1.0624356666664703
2,1,12, 1, 0, 4,54.00,55.00,Sunday
7,-1.0
14,-1.0632061003006272
2,1,12, 1, 0, 4,55.00,56.00,Sunday
7,-1.0
14,-1.0639743820787089
2,1,12, 1, 0, 4,56.00,57.00,Sunday
7,-1.0
14,-1.0647406570198117
2,1,12, 1, 0, 4,57.00,58.00,Sunday
7,-1.0
14,-1.0655050696577555
2,1,12, 1, 0, 4,58.00,59.00,Sunday
7,-1.0
14,-1.066267757686147
2,1,12, 1, 0, 4,59.00,60.00,Sunday
7,-1.0
14,-1.0670288491740307
2,1,12, 1, 0, 5, 0.00, 1.00,Sunday
7,-1.0033333333333332
14,-1.0678180263679609
2,1,12, 1, 0, 5, 1.00, 2.00,Sunday
7,-1.0066666666666666
14,-1.0686948595476569
2,1,12, 1, 0, 5, 2.00, 3.00,Sunday
7,-1.01
14,-1.069689449796202
2,1,12, 1, 0, 5, 3.00, 4.00,Sunday
7,-1.0133333333333334
14,-1.070806391119469
2,1,12, 1, 0, 5, 4.00, 5.00,Sunday
7,-1.0166666666666666
14,-1.072038235411886
2,1,12, 1, 0, 5, 5.00, 6.00,Sunday
7,-1.02
14,-1.0733749578357499
2,1,12, 1, 0, 5, 6.00, 7.00,Sunday
7,-1.0233333333333332
14,-1.0748075143163776
2,1,12, 1, 0, 5, 7.00, 8.00,Sunday
7,-1.0266666666666666
14,-1.0763283198033187
2,1,12, 1, 0, 5, 8.00, 9.00,Sunday
7,-1.03
14,-1.0779308265922283
2,1,12, 1, 0, 5, 9.00,10.00,Sunday
7,-1.0333333333333334
14,-1.0796091267328278
2,1,12, 1, 0, 5,10.00,11.00,Sunday
7,-1.0366666666666666
14,-1.0813577532217624
2,1,12, 1, 0, 5,11.00,12.00,Sunday
7,-1.04
14,-1.0831716109347844
2,1,12, 1, 0, 5,12.00,13.00,Sunday
7,-1.0433333333333334
14,-1.0850459555269287
2,1,12, 1, 0, 5,13.00,14.00,Sunday
7,-1.0466666666666666
14,-1.0869825851610502
2,1,12, 1, 0, 5,14.00,15.00,Sunday
7,-1.05
14,-1.0889788716232425
2,1,12, 1, 0, 5,15.00,16.00,Sunday
7,-1.0533333333333335
14,-1.0910290679687054
2,1,12, 1, 0, 5,16.00,17.00,Sunday
7,-1.0566666666666666
14,-1.0931254421341354
2,1,12, 1, 0, 5,17.00,18.00,Sunday
7,-1.06
14,-1.0952623988515022
2,1,12, 1, 0, 5,18.00,19.00,Sunday
7,-1.0633333333333332
14,-1.0974362414742942
2,1,12, 1, 0, 5,19.00,20.00,Sunday
7,-1.0666666666666667
14,-1.099644226801618
2,1,12, 1, 0, 5,20.00,21.00,Sunday
7,-1.07
14,-1.1018839693908875
2,1,12, 1, 0, 5,21.00,22.00,Sunday
7,-1.0733333333333333
14,-1.1041532271790482
2,1,12, 1, 0, 5,22.00,23.00,Sunday
7,-1.0766666666666667
14,-1.106447949553512
2,1,12, 1, 0, 5,23.00,24.00,Sunday
7,-1.08
14,-1.1087637760608224
2,1,12, 1, 0, 5,24.00,25.00,Sunday
7,-1.0833333333333333
14,-1.11109710810673
2,1,12, 1, 0, 5,25.00,26.00,Sunday
7,-1.0866666666666667
14,-1.113445803349579
2,1,12, 1, 0, 5,26.00,27.00,Sunday
7,-1.09
14,-1.1158085722917956
2,1,12, 1, 0, 5,27.00,28.00,Sunday
7,-1.0933333333333333
14,-1.118184446972605
2,1,12, 1, 0, 5,28.00,29.00,Sunday
7,-1.0966666666666667
14,-1.1205725428650162
2,1,12, 1, 0, 5,29.00,30.00,Sunday
7,-1.1
14,-1.122972003654178
2,1,12, 1, 0, 5,30.00,31.00,Sunday
7,-1.1033333333333333
14,-1.1253820091296365
2,1,12, 1, 0, 5,31.00,32.00,Sunday
7,-1.1066666666666667
14,-1.1278017888365035
2,1,12, 1, 0, 5,32.00,33.00,Sunday
7,-1.1099999999999999
14,-1.130230627230114
2,1,12, 1, 0, 5,33.00,34.00,Sunday
7,-1.1133333333333333
14,-1.1326678622440802
2,1,12, 1, 0, 5,34.00,35.00,Sunday
7,-1.1166666666666667
14,-1.1351128813429476
2,1,12, 1, 0, 5,35.00,36.00,Sunday
7,-1.12
14,-1.137565117361024
2,1,12, 1, 0, 5,36.00,37.00,Sunday
7,-1.1233333333333333
14,-1.1400240448324963
2,1,12, 1, 0, 5,37.00,38.00,Sunday
7,-1.1266666666666665
14,-1.1424891768132135
2,1,12, 1, 0, 5,38.00,39.00,Sunday
7,-1.13
14,-1.1449600620456346
2,1,12, 1, 0, 5,39.00,40.00,Sunday
7,-1.1333333333333333
14,-1.1474362957552058
2,1,12, 1, 0, 5,40.00,41.00,Sunday
7,-1.1366666666666667
14,-1.14991749227417
2,1,12, 1, 0, 5,41.00,42.00,Sunday
7,-1.1400000000000001
14,-1.1524032864650522
2,1,12, 1, 0, 5,42.00,43.00,Sunday
7,-1.1433333333333333
14,-1.1548933354696949
2,1,12, 1, 0, 5,43.00,44.00,Sunday
7,-1.1466666666666665
14,-1.1573873258844607
2,1,12, 1, 0, 5,44.00,45.00,Sunday
7,-1.15
14,-1.1598849711430061
2,1,12, 1, 0, 5,45.00,46.00,Sunday
7,-1.1533333333333333
14,-1.1623860073991756
2,1,12, 1, 0, 5,46.00,47.00,Sunday
7,-1.1566666666666667
14,-1.1648901905133513
2,1,12, 1, 0, 5,47.00,48.00,Sunday
7,-1.16
14,-1.1673972941425141
2,1,12, 1, 0, 5,48.00,49.00,Sunday
7,-1.1633333333333333
14,-1.169907108395573
2,1,12, 1, 0, 5,49.00,50.00,Sunday
7,-1.1666666666666665
14,-1.1724194386936369
2,1,12, 1, 0, 5,50.00,51.00,Sunday
7,-1.17
14,-1.1749341046999116
2,1,12, 1, 0, 5,51.00,52.00,Sunday
7,-1.1733333333333333
14,-1.1774509392976604
2,1,12, 1, 0, 5,52.00,53.00,Sunday
7,-1.1766666666666665
14,-1.1799697876256152
2,1,12, 1, 0, 5,53.00,54.00,Sunday
7,-1.1800000000000002
14,-1.182490506178512
2,1,12, 1, 0, 5,54.00,55.00,Sunday
7,-1.1833333333333331
14,-1.1850129619732794
2,1,12, 1, 0, 5,55.00,56.00,Sunday
7,-1.1866666666666665
14,-1.187537031777131
2,1,12, 1, 0, 5,56.00,57.00,Sunday
7,-1.19
14,-1.1900626013929145
2,1,12, 1, 0, 5,57.00,58.00,Sunday
7,-1.1933333333333334
14,-1.1925895649969898
2,1,12, 1, 0, 5,58.00,59.00,Sunday
7,-1.1966666666666668
14,-1.195117824525489
2,1,12, 1, 0, 5,59.00,60.00,Sunday
7,-1.2
14,-1.1976472891055767
2,1,12, 1, 0, 6, 0.00, 1.00,Sunday
7,-1.2033333333333334
14,-1.200177852336724
2,1,12, 1, 0, 6, 1.00, 2.00,Sunday
7,-1.2066666666666666
14,-1.202709423179545
2,1,12, 1, 0, 6, 2.00, 3.00,Sunday
7,-1.21
14,-1.2052419266406802
2,1,12, 1, 0, 6, 3.00, 4.00,Sunday
7,-1.2133333333333332
14,-1.2077752979209786
2,1,12, 1, 0, 6, 4.00, 5.00,Sunday
7,-1.2166666666666666
14,-1.2103094782206036
2,1,12, 1, 0, 6, 5.00, 6.00,Sunday
7,-1.22
14,-1.2128444129461118
2,1,12, 1, 0, 6, 6.00, 7.00,Sunday
7,-1.2233333333333332
14,-1.2153800511906776
2,1,12, 1, 0, 6, 7.00, 8.00,Sunday
7,-1.2266666666666666
14,-1.2179163455921003
2,1,12, 1, 0, 6, 8.00, 9.00,Sunday
7,-1.23
14,-1.220453252199622
2,1,12, 1, 0, 6, 9.00,10.00,Sunday
7,-1.2333333333333334
14,-1.222990730282154
2,1,12, 1, 0, 6,10.00,11.00,Sunday
7,-1.2366666666666666
14,-1.2255287421056122
2,1,12, 1, 0, 6,11.00,12.00,Sunday
7,-1.24
14,-1.2280672527104115
2,1,12, 1, 0, 6,12.00,13.00,Sunday
7,-1.2433333333333332
14,-1.2306062297034748
2,1,12, 1, 0, 6,13.00,14.00,Sunday
7,-1.2466666666666666
14,-1.2331456430674368
2,1,12, 1, 0, 6,14.00,15.00,Sunday
7,-1.25
14,-1.2356854649856086
2,1,12, 1, 0, 6,15.00,16.00,Sunday
7,-1.2533333333333334
14,-1.2382256696805514
2,1,12, 1, 0, 6,16.00,17.00,Sunday
7,-1.2566666666666666
14,-1.2407662332645408
2,1,12, 1, 0, 6,17.00,18.00,Sunday
7,-1.26
14,-1.2433071336009913
2,1,12, 1, 0, 6,18.00,19.00,Sunday
7,-1.2633333333333332
14,-1.2458483501759823
2,1,12, 1, 0, 6,19.00,20.00,Sunday
7,-1.2666666666666666
14,-1.2483898639791646
2,1,12, 1, 0, 6,20.00,21.00,Sunday
7,-1.27
14,-1.2509316573934426
2,1,12, 1, 0, 6,21.00,22.00,Sunday
7,-1.2733333333333332
14,-1.2534737140927497
2,1,12, 1, 0, 6,22.00,23.00,Sunday
7,-1.2766666666666666
14,-1.2560160189472591
2,1,12, 1, 0, 6,23.00,24.00,Sunday
7,-1.2799999999999998
14,-1.2585585579356193
2,1,12, 1, 0, 6,24.00,25.00,Sunday
7,-1.2833333333333332
14,-1.2611013180636144
2,1,12, 1, 0, 6,25.00,26.00,Sunday
7,-1.2866666666666666
14,-1.2636442872887506
2,1,12, 1, 0, 6,26.00,27.00,Sunday
7,-1.29
14,-1.26618745445047
2,1,12, 1, 0, 6,27.00,28.00,Sunday
7,-1.2933333333333334
14,-1.2687308092054241
2,1,12, 1, 0, 6,28.00,29.00,Sunday
7,-1.2966666666666664
14,-1.2712743419675119
2,1,12, 1, 0, 6,29.00,30.00,Sunday
7,-1.2999999999999998
14,-1.2738180438522804
2,1,12, 1, 0, 6,30.00,31.00,Sunday
7,-1.3033333333333332
14,-1.2763619066254595
2,1,12, 1, 0, 6,31.00,32.00,Sunday
7,-1.3066666666666666
14,-1.2789059226553003
2,1,12, 1, 0, 6,32.00,33.00,Sunday
7,-1.31
14,-1.2814500848682968
2,1,12, 1, 0, 6,33.00,34.00,Sunday
7,-1.3133333333333332
14,-1.2839943867082482
2,1,12, 1, 0, 6,34.00,35.00,Sunday
7,-1.3166666666666667
14,-1.2865388220983263
2,1,12, 1, 0, 6,35.00,36.00,Sunday
7,-1.3199999999999998
14,-1.2890833854058918
2,1,12, 1, 0, 6,36.00,37.00,Sunday
7,-1.3233333333333333
14,-1.291628071409919
2,1,12, 1, 0, 6,37.00,38.00,Sunday
7,-1.3266666666666667
14,-1.2941728752708006
2,1,12, 1, 0, 6,38.00,39.00,Sunday
7,-1.3299999999999998
14,-1.296717792502356
2,1,12, 1, 0, 6,39.00,40.00,Sunday
7,-1.3333333333333333
14,-1.2992628189458886
2,1,12, 1, 0, 6,40.00,41.00,Sunday
7,-1.3366666666666667
14,-1.301807950746194
2,1,12, 1, 0, 6,41.00,42.00,Sunday
7,-1.3399999999999999
14,-1.3043531843293126
2,1,12, 1, 0, 6,42.00,43.00,Sunday
7,-1.3433333333333333
14,-1.3068985163818883
2,1,12, 1, 0, 6,43.00,44.00,Sunday
7,-1.3466666666666667
14,-1.3094439438320271
2,1,12, 1, 0, 6,44.00,45.00,Sunday
7,-1.3499999999999999
14,-1.3119894638316056
2,1,12, 1, 0, 6,45.00,46.00,Sunday
7,-1.353333333333333
14,-1.3145350737398593
2,1,12, 1, 0, 6,46.00,47.00,Sunday
7,-1.3566666666666667
14,-1.3170807711082233
2,1,12, 1, 0, 6,47.00,48.00,Sunday
7,-1.3599999999999999
14,-1.319626553666184
2,1,12, 1, 0, 6,48.00,49.00,Sunday
7,-1.3633333333333333
14,-1.3221724193082576
2,1,12, 1, 0, 6,49.00,50.00,Sunday
7,-1.3666666666666667
14,-1.324718756983652
2,1,12, 1, 0, 6,50.00,51.00,Sunday
7,-1.3699999999999999
14,-1.3272660451285576
2,1,12, 1, 0, 6,51.00,52.00,Sunday
7,-1.3733333333333333
14,-1.3298146354137979
2,1,12, 1, 0, 6,52.00,53.00,Sunday
7,-1.3766666666666667
14,-1.3323646098559334
2,1,12, 1, 0, 6,53.00,54.00,Sunday
7,-1.38
14,-1.3349159027256179
2,1,12, 1, 0, 6,54.00,55.00,Sunday
7,-1.3833333333333333
14,-1.337468407219434
2,1,12, 1, 0, 6,55.00,56.00,Sunday
7,-1.3866666666666667
14,-1.3400220221591024
2,1,12, 1, 0, 6,56.00,57.00,Sunday
7,-1.39
14,-1.3425766614652734
2,1,12, 1, 0, 6,57.00,58.00,Sunday
7,-1.3933333333333333
14,-1.3451322509286747
2,1,12, 1, 0, 6,58.00,59.00,Sunday
7,-1.3966666666666665
14,-1.3476887239757622
2,1,12, 1, 0, 6,59.00,60.00,Sunday
7,-1.4
14,-1.3502460321268293
2,1,12, 1, 0, 7, 0.00, 1.00,Sunday
7,-1.3983333333333332
14,-1.3527454586608303
2,1,12, 1, 0, 7, 1.00, 2.00,Sunday
7,-1.3966666666666665
14,-1.3551103076610092
2,1,12, 1, 0, 7, 2.00, 3.00,Sunday
7,-1.3949999999999998
14,-1.3573470578200786
2,1,12, 1, 0, 7, 3.00, 4.00,Sunday
7,-1.3933333333333333
14,-1.3594797948176118
2,1,12, 1, 0, 7, 4.00, 5.00,Sunday
7,-1.3916666666666666
14,-1.3615270593040816
2,1,12, 1, 0, 7, 5.00, 6.00,Sunday
7,-1.3900000000000001
14,-1.3634998247574608
2,1,12, 1, 0, 7, 6.00, 7.00,Sunday
7,-1.3883333333333332
14,-1.3654048959502818
2,1,12, 1, 0, 7, 7.00, 8.00,Sunday
7,-1.3866666666666667
14,-1.3672475763944878
2,1,12, 1, 0, 7, 8.00, 9.00,Sunday
7,-1.385
14,-1.3690327768740913
2,1,12, 1, 0, 7, 9.00,10.00,Sunday
7,-1.3833333333333333
14,-1.3707652368704517
2,1,12, 1, 0, 7,10.00,11.00,Sunday
7,-1.3816666666666666
14,-1.3724494674091832
2,1,12, 1, 0, 7,11.00,12.00,Sunday
7,-1.38
14,-1.3740896843703745
2,1,12, 1, 0, 7,12.00,13.00,Sunday
7,-1.3783333333333334
14,-1.3756897895311881
2,1,12, 1, 0, 7,13.00,14.00,Sunday
7,-1.3766666666666665
14,-1.3772533839590662
2,1,12, 1, 0, 7,14.00,15.00,Sunday
7,-1.3749999999999998
14,-1.3787837923305561
2,1,12, 1, 0, 7,15.00,16.00,Sunday
7,-1.3733333333333333
14,-1.3802840871454536
2,1,12, 1, 0, 7,16.00,17.00,Sunday
7,-1.3716666666666666
14,-1.3817571098642378
2,1,12, 1, 0, 7,17.00,18.00,Sunday
7,-1.3699999999999999
14,-1.3832054892560992
2,1,12, 1, 0, 7,18.00,19.00,Sunday
7,-1.3683333333333334
14,-1.3846316577972921
2,1,12, 1, 0, 7,19.00,20.00,Sunday
7,-1.3666666666666667
14,-1.3860378666740552
2,1,12, 1, 0, 7,20.00,21.00,Sunday
7,-1.3649999999999998
14,-1.387426199642397
2,1,12, 1, 0, 7,21.00,22.00,Sunday
7,-1.3633333333333333
14,-1.3887985858498797
2,1,12, 1, 0, 7,22.00,23.00,Sunday
7,-1.3616666666666668
14,-1.3901568116829914
2,1,12, 1, 0, 7,23.00,24.00,Sunday
7,-1.3599999999999999
14,-1.391502531702053
2,1,12, 1, 0, 7,24.00,25.00,Sunday
7,-1.3583333333333334
14,-1.3928372787293666
2,1,12, 1, 0, 7,25.00,26.00,Sunday
7,-1.3566666666666665
14,-1.3941624731559579
2,1,12, 1, 0, 7,26.00,27.00,Sunday
7,-1.355
14,-1.3954794315286687
2,1,12, 1, 0, 7,27.00,28.00,Sunday
7,-1.3533333333333333
14,-1.3967893744745679
2,1,12, 1, 0, 7,28.00,29.00,Sunday
7,-1.3516666666666666
14,-1.3980934340148243
2,1,12, 1, 0, 7,29.00,30.00,Sunday
7,-1.35
14,-1.3993926692737761
2,1,12, 1, 0, 7,30.00,31.00,Sunday
7,-1.3483333333333332
14,-1.4006880563001625
2,1,12, 1, 0, 7,31.00,32.00,Sunday
7,-1.3466666666666667
14,-1.4019804958688495
2,1,12, 1, 0, 7,32.00,33.00,Sunday
7,-1.345
14,-1.4032708211217313
2,1,12, 1, 0, 7,33.00,34.00,Sunday
7,-1.3433333333333333
14,-1.4045598090745208
2,1,12, 1, 0, 7,34.00,35.00,Sunday
7,-1.3416666666666668
14,-1.405848184455024